
     Program BANDS v.6.8 starts on 19Mar2023 at 13:22:10 

     This program is part of the open-source Quantum ESPRESSO suite
     for quantum simulation of materials; please cite
         "P. Giannozzi et al., J. Phys.:Condens. Matter 21 395502 (2009);
         "P. Giannozzi et al., J. Phys.:Condens. Matter 29 465901 (2017);
         "P. Giannozzi et al., J. Chem. Phys. 152 154105 (2020);
          URL http://www.quantum-espresso.org", 
     in publications or presentations arising from this work. More details at
     http://www.quantum-espresso.org/quote

     Parallel version (MPI), running on    12 processors

     MPI processes distributed on     1 nodes
     R & G space division:  proc/nbgrp/npool/nimage =      12
     237287 MiB available memory on the printing compute node when the environment starts
 

     Reading xml data from directory:

     ./SnS.save/

     IMPORTANT: XC functional enforced from input :
     Exchange-correlation= PBESOL
                           (   1   4  10   8   0   0   0)
     Any further DFT definition will be discarded
     Please, verify this is what you really want

 
     Parallelization info
     --------------------
     sticks:   dense  smooth     PW     G-vecs:    dense   smooth      PW
     Min         202     100     28                36422    12868    1970
     Max         204     102     29                36443    12885    1989
     Sum        2435    1213    345               437187   154555   23799
 
     Using Slab Decomposition
 

     negative rho (up, down):  4.854E-05 0.000E+00
     Reading collected, re-writing distributed wavefunctions
     high-symmetry point:  0.0000 0.0000 0.0000   x coordinate   0.0000
     high-symmetry point:  0.5000 0.0000 0.0000   x coordinate   0.5000
     high-symmetry point:  0.5000 0.4859 0.0000   x coordinate   0.9859
     high-symmetry point:  0.0000 0.4859 0.0000   x coordinate   1.4859
     high-symmetry point:  0.0000 0.0000 0.0000   x coordinate   1.9718

     Plottable bands (eV) written to file SnS_bands.dat.gnu
     Bands written to file SnS_bands.dat

 **************************************************************************

                    xk=(   0.00000,   0.00000,   0.00000  )

     double point group C_s (m)    
     there are  4 classes and  2 irreducible representations
     the character table:

       E     -E    s     -s   
                              
G_3    1.00 -1.00  0.00  0.00
G_4    1.00 -1.00  0.00  0.00

     imaginary part

       E     -E    s     -s   
                              
G_3    0.00  0.00  1.00 -1.00
G_4    0.00  0.00 -1.00  1.00

     the symmetry operations in each class and the name of the first element:

     E             1
                                                                 
     -E           -1
                                                                 
     s             2
                                                                 
     -s           -2
                                                                 

     Band symmetry, C_s (m)     double point group:

     e(  1 -  2) =    -22.31558  eV     2   --> G_3            
     e(  1 -  2) =    -22.31558  eV     2   --> G_4            
     e(  3 -  6) =    -22.30463  eV     4   -->   2 G_3            
     e(  3 -  6) =    -22.30463  eV     4   -->   2 G_4            
     e(  7 -  8) =    -22.29524  eV     2   --> G_3            
     e(  7 -  8) =    -22.29524  eV     2   --> G_4            
     e(  9 - 10) =    -22.29458  eV     2   --> G_3            
     e(  9 - 10) =    -22.29458  eV     2   --> G_4            
     e( 11 - 12) =    -22.26106  eV     2   --> G_3            
     e( 11 - 12) =    -22.26106  eV     2   --> G_4            
     e( 13 - 14) =    -22.24765  eV     2   --> G_3            
     e( 13 - 14) =    -22.24765  eV     2   --> G_4            
     e( 15 - 16) =    -22.24498  eV     2   --> G_3            
     e( 15 - 16) =    -22.24498  eV     2   --> G_4            
     e( 17 - 18) =    -22.23015  eV     2   --> G_3            
     e( 17 - 18) =    -22.23015  eV     2   --> G_4            
     e( 19 - 20) =    -22.22838  eV     2   --> G_3            
     e( 19 - 20) =    -22.22838  eV     2   --> G_4            
     e( 21 - 22) =    -14.61743  eV     2   --> G_3            
     e( 21 - 22) =    -14.61743  eV     2   --> G_4            
     e( 23 - 24) =    -13.18546  eV     2   --> G_3            
     e( 23 - 24) =    -13.18546  eV     2   --> G_4            
     e( 25 - 26) =     -7.75578  eV     2   --> G_3            
     e( 25 - 26) =     -7.75578  eV     2   --> G_4            
     e( 27 - 28) =     -5.97579  eV     2   --> G_3            
     e( 27 - 28) =     -5.97579  eV     2   --> G_4            
     e( 29 - 30) =     -4.89653  eV     2   --> G_3            
     e( 29 - 30) =     -4.89653  eV     2   --> G_4            
     e( 31 - 32) =     -4.59507  eV     2   --> G_3            
     e( 31 - 32) =     -4.59507  eV     2   --> G_4            
     e( 33 - 34) =     -4.44117  eV     2   --> G_3            
     e( 33 - 34) =     -4.44117  eV     2   --> G_4            
     e( 35 - 36) =     -3.25129  eV     2   --> G_3            
     e( 35 - 36) =     -3.25129  eV     2   --> G_4            
     e( 37 - 38) =     -3.00686  eV     2   --> G_3            
     e( 37 - 38) =     -3.00686  eV     2   --> G_4            
     e( 39 - 40) =     -1.64503  eV     2   --> G_3            
     e( 39 - 40) =     -1.64503  eV     2   --> G_4            
     e( 41 - 42) =      0.50601  eV     2   --> G_3            
     e( 41 - 42) =      0.50601  eV     2   --> G_4            
     e( 43 - 44) =      1.74158  eV     2   --> G_3            
     e( 43 - 44) =      1.74158  eV     2   --> G_4            
     e( 45 - 46) =      2.41216  eV     2   --> G_3            
     e( 45 - 46) =      2.41216  eV     2   --> G_4            
     e( 47 - 48) =      2.73009  eV     2   --> G_3            
     e( 47 - 48) =      2.73009  eV     2   --> G_4            

 **************************************************************************

 **************************************************************************

                    xk=(   0.02500,   0.00000,   0.00000  )

     double point group C_1 (1)    
     there are  2 classes and  1 irreducible representations
     the character table:

       E     -E   
                  
G_2    1.00 -1.00

     the symmetry operations in each class and the name of the first element:

     E             1
                                                                 
     -E           -1
                                                                 

     Band symmetry, C_1 (1)     double point group:

     e(  1 -  2) =    -22.31548  eV     2   -->   2 G_2            
     e(  3 -  4) =    -22.30473  eV     2   -->   2 G_2            
     e(  5 -  6) =    -22.30444  eV     2   -->   2 G_2            
     e(  7 -  8) =    -22.29582  eV     2   -->   2 G_2            
     e(  9 - 10) =    -22.29400  eV     2   -->   2 G_2            
     e( 11 - 12) =    -22.26109  eV     2   -->   2 G_2            
     e( 13 - 14) =    -22.24766  eV     2   -->   2 G_2            
     e( 15 - 16) =    -22.24493  eV     2   -->   2 G_2            
     e( 17 - 18) =    -22.23021  eV     2   -->   2 G_2            
     e( 19 - 20) =    -22.22838  eV     2   -->   2 G_2            
     e( 21 - 22) =    -14.61409  eV     2   -->   2 G_2            
     e( 23 - 24) =    -13.18505  eV     2   -->   2 G_2            
     e( 25 - 26) =     -7.76449  eV     2   -->   2 G_2            
     e( 27 - 28) =     -5.99040  eV     2   -->   2 G_2            
     e( 29 - 30) =     -4.89729  eV     2   -->   2 G_2            
     e( 31 - 32) =     -4.59229  eV     2   -->   2 G_2            
     e( 33 - 34) =     -4.43427  eV     2   -->   2 G_2            
     e( 35 - 36) =     -3.24108  eV     2   -->   2 G_2            
     e( 37 - 38) =     -2.99943  eV     2   -->   2 G_2            
     e( 39 - 40) =     -1.64797  eV     2   -->   2 G_2            
     e( 41 - 42) =      0.51024  eV     2   -->   2 G_2            
     e( 43 - 44) =      1.75413  eV     2   -->   2 G_2            
     e( 45 - 46) =      2.40832  eV     2   -->   2 G_2            
     e( 47 - 48) =      2.71075  eV     2   -->   2 G_2            

 **************************************************************************

 **************************************************************************

                    xk=(   0.05000,   0.00000,   0.00000  )

     Band symmetry, C_1 (1)     double point group:

     e(  1 -  2) =    -22.31518  eV     2   -->   2 G_2            
     e(  3 -  4) =    -22.30492  eV     2   -->   2 G_2            
     e(  5 -  6) =    -22.30419  eV     2   -->   2 G_2            
     e(  7 -  8) =    -22.29664  eV     2   -->   2 G_2            
     e(  9 - 10) =    -22.29317  eV     2   -->   2 G_2            
     e( 11 - 12) =    -22.26114  eV     2   -->   2 G_2            
     e( 13 - 14) =    -22.24766  eV     2   -->   2 G_2            
     e( 15 - 16) =    -22.24478  eV     2   -->   2 G_2            
     e( 17 - 18) =    -22.23039  eV     2   -->   2 G_2            
     e( 19 - 20) =    -22.22838  eV     2   -->   2 G_2            
     e( 21 - 22) =    -14.60411  eV     2   -->   2 G_2            
     e( 23 - 24) =    -13.18387  eV     2   -->   2 G_2            
     e( 25 - 26) =     -7.79018  eV     2   -->   2 G_2            
     e( 27 - 28) =     -6.03384  eV     2   -->   2 G_2            
     e( 29 - 30) =     -4.89831  eV     2   -->   2 G_2            
     e( 31 - 32) =     -4.58374  eV     2   -->   2 G_2            
     e( 33 - 34) =     -4.41401  eV     2   -->   2 G_2            
     e( 35 - 36) =     -3.21376  eV     2   -->   2 G_2            
     e( 37 - 38) =     -2.97547  eV     2   -->   2 G_2            
     e( 39 - 40) =     -1.65686  eV     2   -->   2 G_2            
     e( 41 - 42) =      0.52295  eV     2   -->   2 G_2            
     e( 43 - 44) =      1.79094  eV     2   -->   2 G_2            
     e( 45 - 46) =      2.39322  eV     2   -->   2 G_2            
     e( 47 - 48) =      2.64536  eV     2   -->   2 G_2            

 **************************************************************************

 **************************************************************************

                    xk=(   0.07500,   0.00000,   0.00000  )

     Band symmetry, C_1 (1)     double point group:

     e(  1 -  2) =    -22.31470  eV     2   -->   2 G_2            
     e(  3 -  4) =    -22.30523  eV     2   -->   2 G_2            
     e(  5 -  6) =    -22.30379  eV     2   -->   2 G_2            
     e(  7 -  8) =    -22.29749  eV     2   -->   2 G_2            
     e(  9 - 10) =    -22.29231  eV     2   -->   2 G_2            
     e( 11 - 12) =    -22.26123  eV     2   -->   2 G_2            
     e( 13 - 14) =    -22.24766  eV     2   -->   2 G_2            
     e( 15 - 16) =    -22.24454  eV     2   -->   2 G_2            
     e( 17 - 18) =    -22.23069  eV     2   -->   2 G_2            
     e( 19 - 20) =    -22.22839  eV     2   -->   2 G_2            
     e( 21 - 22) =    -14.58754  eV     2   -->   2 G_2            
     e( 23 - 24) =    -13.18210  eV     2   -->   2 G_2            
     e( 25 - 26) =     -7.83150  eV     2   -->   2 G_2            
     e( 27 - 28) =     -6.10479  eV     2   -->   2 G_2            
     e( 29 - 30) =     -4.89654  eV     2   -->   2 G_2            
     e( 31 - 32) =     -4.56891  eV     2   -->   2 G_2            
     e( 33 - 34) =     -4.38147  eV     2   -->   2 G_2            
     e( 35 - 36) =     -3.17786  eV     2   -->   2 G_2            
     e( 37 - 38) =     -2.93071  eV     2   -->   2 G_2            
     e( 39 - 40) =     -1.67186  eV     2   -->   2 G_2            
     e( 41 - 42) =      0.54420  eV     2   -->   2 G_2            
     e( 43 - 44) =      1.84938  eV     2   -->   2 G_2            
     e( 45 - 46) =      2.35119  eV     2   -->   2 G_2            
     e( 47 - 48) =      2.53548  eV     2   -->   2 G_2            

 **************************************************************************

 **************************************************************************

                    xk=(   0.10000,   0.00000,   0.00000  )

     Band symmetry, C_1 (1)     double point group:

     e(  1 -  2) =    -22.31405  eV     2   -->   2 G_2            
     e(  3 -  4) =    -22.30564  eV     2   -->   2 G_2            
     e(  5 -  6) =    -22.30326  eV     2   -->   2 G_2            
     e(  7 -  8) =    -22.29834  eV     2   -->   2 G_2            
     e(  9 - 10) =    -22.29141  eV     2   -->   2 G_2            
     e( 11 - 12) =    -22.26138  eV     2   -->   2 G_2            
     e( 13 - 14) =    -22.24766  eV     2   -->   2 G_2            
     e( 15 - 16) =    -22.24421  eV     2   -->   2 G_2            
     e( 17 - 18) =    -22.23110  eV     2   -->   2 G_2            
     e( 19 - 20) =    -22.22840  eV     2   -->   2 G_2            
     e( 21 - 22) =    -14.56448  eV     2   -->   2 G_2            
     e( 23 - 24) =    -13.18004  eV     2   -->   2 G_2            
     e( 25 - 26) =     -7.88637  eV     2   -->   2 G_2            
     e( 27 - 28) =     -6.20074  eV     2   -->   2 G_2            
     e( 29 - 30) =     -4.88880  eV     2   -->   2 G_2            
     e( 31 - 32) =     -4.54735  eV     2   -->   2 G_2            
     e( 33 - 34) =     -4.33801  eV     2   -->   2 G_2            
     e( 35 - 36) =     -3.14246  eV     2   -->   2 G_2            
     e( 37 - 38) =     -2.86173  eV     2   -->   2 G_2            
     e( 39 - 40) =     -1.69320  eV     2   -->   2 G_2            
     e( 41 - 42) =      0.57406  eV     2   -->   2 G_2            
     e( 43 - 44) =      1.92466  eV     2   -->   2 G_2            
     e( 45 - 46) =      2.24100  eV     2   -->   2 G_2            
     e( 47 - 48) =      2.42904  eV     2   -->   2 G_2            

 **************************************************************************

 **************************************************************************

                    xk=(   0.12500,   0.00000,   0.00000  )

     Band symmetry, C_1 (1)     double point group:

     e(  1 -  2) =    -22.31328  eV     2   -->   2 G_2            
     e(  3 -  4) =    -22.30615  eV     2   -->   2 G_2            
     e(  5 -  6) =    -22.30261  eV     2   -->   2 G_2            
     e(  7 -  8) =    -22.29918  eV     2   -->   2 G_2            
     e(  9 - 10) =    -22.29048  eV     2   -->   2 G_2            
     e( 11 - 12) =    -22.26156  eV     2   -->   2 G_2            
     e( 13 - 14) =    -22.24765  eV     2   -->   2 G_2            
     e( 15 - 16) =    -22.24379  eV     2   -->   2 G_2            
     e( 17 - 18) =    -22.23161  eV     2   -->   2 G_2            
     e( 19 - 20) =    -22.22842  eV     2   -->   2 G_2            
     e( 21 - 22) =    -14.53506  eV     2   -->   2 G_2            
     e( 23 - 24) =    -13.17812  eV     2   -->   2 G_2            
     e( 25 - 26) =     -7.95214  eV     2   -->   2 G_2            
     e( 27 - 28) =     -6.31805  eV     2   -->   2 G_2            
     e( 29 - 30) =     -4.87285  eV     2   -->   2 G_2            
     e( 31 - 32) =     -4.51886  eV     2   -->   2 G_2            
     e( 33 - 34) =     -4.28501  eV     2   -->   2 G_2            
     e( 35 - 36) =     -3.11174  eV     2   -->   2 G_2            
     e( 37 - 38) =     -2.77015  eV     2   -->   2 G_2            
     e( 39 - 40) =     -1.72100  eV     2   -->   2 G_2            
     e( 41 - 42) =      0.61266  eV     2   -->   2 G_2            
     e( 43 - 44) =      2.00922  eV     2   -->   2 G_2            
     e( 45 - 46) =      2.05638  eV     2   -->   2 G_2            
     e( 47 - 48) =      2.34595  eV     2   -->   2 G_2            

 **************************************************************************

 **************************************************************************

                    xk=(   0.15000,   0.00000,   0.00000  )

     Band symmetry, C_1 (1)     double point group:

     e(  1 -  2) =    -22.31244  eV     2   -->   2 G_2            
     e(  3 -  4) =    -22.30674  eV     2   -->   2 G_2            
     e(  5 -  6) =    -22.30187  eV     2   -->   2 G_2            
     e(  7 -  8) =    -22.29999  eV     2   -->   2 G_2            
     e(  9 - 10) =    -22.28949  eV     2   -->   2 G_2            
     e( 11 - 12) =    -22.26180  eV     2   -->   2 G_2            
     e( 13 - 14) =    -22.24762  eV     2   -->   2 G_2            
     e( 15 - 16) =    -22.24329  eV     2   -->   2 G_2            
     e( 17 - 18) =    -22.23221  eV     2   -->   2 G_2            
     e( 19 - 20) =    -22.22845  eV     2   -->   2 G_2            
     e( 21 - 22) =    -14.49948  eV     2   -->   2 G_2            
     e( 23 - 24) =    -13.17686  eV     2   -->   2 G_2            
     e( 25 - 26) =     -8.02584  eV     2   -->   2 G_2            
     e( 27 - 28) =     -6.45248  eV     2   -->   2 G_2            
     e( 29 - 30) =     -4.84771  eV     2   -->   2 G_2            
     e( 31 - 32) =     -4.48348  eV     2   -->   2 G_2            
     e( 33 - 34) =     -4.22374  eV     2   -->   2 G_2            
     e( 35 - 36) =     -3.08552  eV     2   -->   2 G_2            
     e( 37 - 38) =     -2.66148  eV     2   -->   2 G_2            
     e( 39 - 40) =     -1.75521  eV     2   -->   2 G_2            
     e( 41 - 42) =      0.66008  eV     2   -->   2 G_2            
     e( 43 - 44) =      1.83925  eV     2   -->   2 G_2            
     e( 45 - 46) =      2.09208  eV     2   -->   2 G_2            
     e( 47 - 48) =      2.25531  eV     2   -->   2 G_2            

 **************************************************************************

 **************************************************************************

                    xk=(   0.17500,   0.00000,   0.00000  )

     Band symmetry, C_1 (1)     double point group:

     e(  1 -  2) =    -22.31159  eV     2   -->   2 G_2            
     e(  3 -  4) =    -22.30740  eV     2   -->   2 G_2            
     e(  5 -  6) =    -22.30108  eV     2   -->   2 G_2            
     e(  7 -  8) =    -22.30069  eV     2   -->   2 G_2            
     e(  9 - 10) =    -22.28845  eV     2   -->   2 G_2            
     e( 11 - 12) =    -22.26208  eV     2   -->   2 G_2            
     e( 13 - 14) =    -22.24758  eV     2   -->   2 G_2            
     e( 15 - 16) =    -22.24271  eV     2   -->   2 G_2            
     e( 17 - 18) =    -22.23290  eV     2   -->   2 G_2            
     e( 19 - 20) =    -22.22850  eV     2   -->   2 G_2            
     e( 21 - 22) =    -14.45797  eV     2   -->   2 G_2            
     e( 23 - 24) =    -13.17689  eV     2   -->   2 G_2            
     e( 25 - 26) =     -8.10430  eV     2   -->   2 G_2            
     e( 27 - 28) =     -6.59969  eV     2   -->   2 G_2            
     e( 29 - 30) =     -4.81330  eV     2   -->   2 G_2            
     e( 31 - 32) =     -4.44147  eV     2   -->   2 G_2            
     e( 33 - 34) =     -4.15542  eV     2   -->   2 G_2            
     e( 35 - 36) =     -3.06267  eV     2   -->   2 G_2            
     e( 37 - 38) =     -2.54149  eV     2   -->   2 G_2            
     e( 39 - 40) =     -1.79550  eV     2   -->   2 G_2            
     e( 41 - 42) =      0.71642  eV     2   -->   2 G_2            
     e( 43 - 44) =      1.61013  eV     2   -->   2 G_2            
     e( 45 - 46) =      2.14778  eV     2   -->   2 G_2            
     e( 47 - 48) =      2.15870  eV     2   -->   2 G_2            

 **************************************************************************

 **************************************************************************

                    xk=(   0.20000,   0.00000,   0.00000  )

     Band symmetry, C_1 (1)     double point group:

     e(  1 -  2) =    -22.31082  eV     2   -->   2 G_2            
     e(  3 -  4) =    -22.30811  eV     2   -->   2 G_2            
     e(  5 -  6) =    -22.30128  eV     2   -->   2 G_2            
     e(  7 -  8) =    -22.30019  eV     2   -->   2 G_2            
     e(  9 - 10) =    -22.28734  eV     2   -->   2 G_2            
     e( 11 - 12) =    -22.26242  eV     2   -->   2 G_2            
     e( 13 - 14) =    -22.24752  eV     2   -->   2 G_2            
     e( 15 - 16) =    -22.24205  eV     2   -->   2 G_2            
     e( 17 - 18) =    -22.23365  eV     2   -->   2 G_2            
     e( 19 - 20) =    -22.22856  eV     2   -->   2 G_2            
     e( 21 - 22) =    -14.41079  eV     2   -->   2 G_2            
     e( 23 - 24) =    -13.17892  eV     2   -->   2 G_2            
     e( 25 - 26) =     -8.18429  eV     2   -->   2 G_2            
     e( 27 - 28) =     -6.75568  eV     2   -->   2 G_2            
     e( 29 - 30) =     -4.77009  eV     2   -->   2 G_2            
     e( 31 - 32) =     -4.39327  eV     2   -->   2 G_2            
     e( 33 - 34) =     -4.08128  eV     2   -->   2 G_2            
     e( 35 - 36) =     -3.04274  eV     2   -->   2 G_2            
     e( 37 - 38) =     -2.41476  eV     2   -->   2 G_2            
     e( 39 - 40) =     -1.84112  eV     2   -->   2 G_2            
     e( 41 - 42) =      0.78171  eV     2   -->   2 G_2            
     e( 43 - 44) =      1.37801  eV     2   -->   2 G_2            
     e( 45 - 46) =      2.02654  eV     2   -->   2 G_2            
     e( 47 - 48) =      2.19286  eV     2   -->   2 G_2            

 **************************************************************************

 **************************************************************************

                    xk=(   0.22500,   0.00000,   0.00000  )

     Band symmetry, C_1 (1)     double point group:

     e(  1 -  2) =    -22.31026  eV     2   -->   2 G_2            
     e(  3 -  4) =    -22.30886  eV     2   -->   2 G_2            
     e(  5 -  6) =    -22.30159  eV     2   -->   2 G_2            
     e(  7 -  8) =    -22.29933  eV     2   -->   2 G_2            
     e(  9 - 10) =    -22.28618  eV     2   -->   2 G_2            
     e( 11 - 12) =    -22.26281  eV     2   -->   2 G_2            
     e( 13 - 14) =    -22.24744  eV     2   -->   2 G_2            
     e( 15 - 16) =    -22.24134  eV     2   -->   2 G_2            
     e( 17 - 18) =    -22.23445  eV     2   -->   2 G_2            
     e( 19 - 20) =    -22.22863  eV     2   -->   2 G_2            
     e( 21 - 22) =    -14.35829  eV     2   -->   2 G_2            
     e( 23 - 24) =    -13.18375  eV     2   -->   2 G_2            
     e( 25 - 26) =     -8.26272  eV     2   -->   2 G_2            
     e( 27 - 28) =     -6.91692  eV     2   -->   2 G_2            
     e( 29 - 30) =     -4.71876  eV     2   -->   2 G_2            
     e( 31 - 32) =     -4.33947  eV     2   -->   2 G_2            
     e( 33 - 34) =     -4.00262  eV     2   -->   2 G_2            
     e( 35 - 36) =     -3.02601  eV     2   -->   2 G_2            
     e( 37 - 38) =     -2.28488  eV     2   -->   2 G_2            
     e( 39 - 40) =     -1.89086  eV     2   -->   2 G_2            
     e( 41 - 42) =      0.85593  eV     2   -->   2 G_2            
     e( 43 - 44) =      1.14856  eV     2   -->   2 G_2            
     e( 45 - 46) =      1.89811  eV     2   -->   2 G_2            
     e( 47 - 48) =      2.18156  eV     2   -->   2 G_2            

 **************************************************************************

 **************************************************************************

                    xk=(   0.25000,   0.00000,   0.00000  )

     Band symmetry, C_1 (1)     double point group:

     e(  1 -  2) =    -22.31003  eV     2   -->   2 G_2            
     e(  3 -  4) =    -22.30959  eV     2   -->   2 G_2            
     e(  5 -  6) =    -22.30157  eV     2   -->   2 G_2            
     e(  7 -  8) =    -22.29847  eV     2   -->   2 G_2            
     e(  9 - 10) =    -22.28497  eV     2   -->   2 G_2            
     e( 11 - 12) =    -22.26327  eV     2   -->   2 G_2            
     e( 13 - 14) =    -22.24732  eV     2   -->   2 G_2            
     e( 15 - 16) =    -22.24056  eV     2   -->   2 G_2            
     e( 17 - 18) =    -22.23531  eV     2   -->   2 G_2            
     e( 19 - 20) =    -22.22873  eV     2   -->   2 G_2            
     e( 21 - 22) =    -14.30087  eV     2   -->   2 G_2            
     e( 23 - 24) =    -13.19219  eV     2   -->   2 G_2            
     e( 25 - 26) =     -8.33660  eV     2   -->   2 G_2            
     e( 27 - 28) =     -7.08037  eV     2   -->   2 G_2            
     e( 29 - 30) =     -4.66012  eV     2   -->   2 G_2            
     e( 31 - 32) =     -4.28087  eV     2   -->   2 G_2            
     e( 33 - 34) =     -3.92093  eV     2   -->   2 G_2            
     e( 35 - 36) =     -3.01325  eV     2   -->   2 G_2            
     e( 37 - 38) =     -2.15503  eV     2   -->   2 G_2            
     e( 39 - 40) =     -1.94291  eV     2   -->   2 G_2            
     e( 41 - 42) =      0.92645  eV     2   -->   2 G_2            
     e( 43 - 44) =      0.93897  eV     2   -->   2 G_2            
     e( 45 - 46) =      1.76930  eV     2   -->   2 G_2            
     e( 47 - 48) =      2.12031  eV     2   -->   2 G_2            

 **************************************************************************

 **************************************************************************

                    xk=(   0.27500,   0.00000,   0.00000  )

     Band symmetry, C_1 (1)     double point group:

     e(  1 -  2) =    -22.31042  eV     2   -->   2 G_2            
     e(  3 -  4) =    -22.31005  eV     2   -->   2 G_2            
     e(  5 -  6) =    -22.30119  eV     2   -->   2 G_2            
     e(  7 -  8) =    -22.29764  eV     2   -->   2 G_2            
     e(  9 - 10) =    -22.28369  eV     2   -->   2 G_2            
     e( 11 - 12) =    -22.26379  eV     2   -->   2 G_2            
     e( 13 - 14) =    -22.24715  eV     2   -->   2 G_2            
     e( 15 - 16) =    -22.23974  eV     2   -->   2 G_2            
     e( 17 - 18) =    -22.23618  eV     2   -->   2 G_2            
     e( 19 - 20) =    -22.22886  eV     2   -->   2 G_2            
     e( 21 - 22) =    -14.23897  eV     2   -->   2 G_2            
     e( 23 - 24) =    -13.20505  eV     2   -->   2 G_2            
     e( 25 - 26) =     -8.40319  eV     2   -->   2 G_2            
     e( 27 - 28) =     -7.24343  eV     2   -->   2 G_2            
     e( 29 - 30) =     -4.59504  eV     2   -->   2 G_2            
     e( 31 - 32) =     -4.21848  eV     2   -->   2 G_2            
     e( 33 - 34) =     -3.83799  eV     2   -->   2 G_2            
     e( 35 - 36) =     -3.00551  eV     2   -->   2 G_2            
     e( 37 - 38) =     -2.02853  eV     2   -->   2 G_2            
     e( 39 - 40) =     -1.99478  eV     2   -->   2 G_2            
     e( 41 - 42) =      0.71630  eV     2   -->   2 G_2            
     e( 43 - 44) =      1.03062  eV     2   -->   2 G_2            
     e( 45 - 46) =      1.64628  eV     2   -->   2 G_2            
     e( 47 - 48) =      2.01380  eV     2   -->   2 G_2            

 **************************************************************************

 **************************************************************************

                    xk=(   0.30000,   0.00000,   0.00000  )

     Band symmetry, C_1 (1)     double point group:

     e(  1 -  2) =    -22.31113  eV     2   -->   2 G_2            
     e(  3 -  4) =    -22.31043  eV     2   -->   2 G_2            
     e(  5 -  6) =    -22.30055  eV     2   -->   2 G_2            
     e(  7 -  8) =    -22.29688  eV     2   -->   2 G_2            
     e(  9 - 10) =    -22.28238  eV     2   -->   2 G_2            
     e( 11 - 12) =    -22.26437  eV     2   -->   2 G_2            
     e( 13 - 14) =    -22.24694  eV     2   -->   2 G_2            
     e( 15 - 16) =    -22.23889  eV     2   -->   2 G_2            
     e( 17 - 18) =    -22.23706  eV     2   -->   2 G_2            
     e( 19 - 20) =    -22.22903  eV     2   -->   2 G_2            
     e( 21 - 22) =    -14.17312  eV     2   -->   2 G_2            
     e( 23 - 24) =    -13.22309  eV     2   -->   2 G_2            
     e( 25 - 26) =     -8.46005  eV     2   -->   2 G_2            
     e( 27 - 28) =     -7.40384  eV     2   -->   2 G_2            
     e( 29 - 30) =     -4.52442  eV     2   -->   2 G_2            
     e( 31 - 32) =     -4.15367  eV     2   -->   2 G_2            
     e( 33 - 34) =     -3.75592  eV     2   -->   2 G_2            
     e( 35 - 36) =     -3.00398  eV     2   -->   2 G_2            
     e( 37 - 38) =     -2.04322  eV     2   -->   2 G_2            
     e( 39 - 40) =     -1.90949  eV     2   -->   2 G_2            
     e( 41 - 42) =      0.52347  eV     2   -->   2 G_2            
     e( 43 - 44) =      1.13047  eV     2   -->   2 G_2            
     e( 45 - 46) =      1.53429  eV     2   -->   2 G_2            
     e( 47 - 48) =      1.87166  eV     2   -->   2 G_2            

 **************************************************************************

 **************************************************************************

                    xk=(   0.32500,   0.00000,   0.00000  )

     Band symmetry, C_1 (1)     double point group:

     e(  1 -  2) =    -22.31180  eV     2   -->   2 G_2            
     e(  3 -  4) =    -22.31095  eV     2   -->   2 G_2            
     e(  5 -  6) =    -22.29974  eV     2   -->   2 G_2            
     e(  7 -  8) =    -22.29621  eV     2   -->   2 G_2            
     e(  9 - 10) =    -22.28102  eV     2   -->   2 G_2            
     e( 11 - 12) =    -22.26503  eV     2   -->   2 G_2            
     e( 13 - 14) =    -22.24669  eV     2   -->   2 G_2            
     e( 15 - 18) =    -22.23802  eV     4   -->   4 G_2            
     e( 19 - 20) =    -22.22923  eV     2   -->   2 G_2            
     e( 21 - 22) =    -14.10392  eV     2   -->   2 G_2            
     e( 23 - 24) =    -13.24696  eV     2   -->   2 G_2            
     e( 25 - 26) =     -8.50501  eV     2   -->   2 G_2            
     e( 27 - 28) =     -7.55961  eV     2   -->   2 G_2            
     e( 29 - 30) =     -4.44929  eV     2   -->   2 G_2            
     e( 31 - 32) =     -4.08829  eV     2   -->   2 G_2            
     e( 33 - 34) =     -3.67723  eV     2   -->   2 G_2            
     e( 35 - 36) =     -3.00976  eV     2   -->   2 G_2            
     e( 37 - 38) =     -2.08414  eV     2   -->   2 G_2            
     e( 39 - 40) =     -1.80343  eV     2   -->   2 G_2            
     e( 41 - 42) =      0.35471  eV     2   -->   2 G_2            
     e( 43 - 44) =      1.23781  eV     2   -->   2 G_2            
     e( 45 - 46) =      1.43760  eV     2   -->   2 G_2            
     e( 47 - 48) =      1.70416  eV     2   -->   2 G_2            

 **************************************************************************

 **************************************************************************

                    xk=(   0.35000,   0.00000,   0.00000  )

     Band symmetry, C_1 (1)     double point group:

     e(  1 -  2) =    -22.31242  eV     2   -->   2 G_2            
     e(  3 -  4) =    -22.31155  eV     2   -->   2 G_2            
     e(  5 -  6) =    -22.29888  eV     2   -->   2 G_2            
     e(  7 -  8) =    -22.29565  eV     2   -->   2 G_2            
     e(  9 - 10) =    -22.27965  eV     2   -->   2 G_2            
     e( 11 - 12) =    -22.26577  eV     2   -->   2 G_2            
     e( 13 - 14) =    -22.24639  eV     2   -->   2 G_2            
     e( 15 - 16) =    -22.23882  eV     2   -->   2 G_2            
     e( 17 - 18) =    -22.23712  eV     2   -->   2 G_2            
     e( 19 - 20) =    -22.22948  eV     2   -->   2 G_2            
     e( 21 - 22) =    -14.03204  eV     2   -->   2 G_2            
     e( 23 - 24) =    -13.27717  eV     2   -->   2 G_2            
     e( 25 - 26) =     -8.53633  eV     2   -->   2 G_2            
     e( 27 - 28) =     -7.70899  eV     2   -->   2 G_2            
     e( 29 - 30) =     -4.37080  eV     2   -->   2 G_2            
     e( 31 - 32) =     -4.02496  eV     2   -->   2 G_2            
     e( 33 - 34) =     -3.60443  eV     2   -->   2 G_2            
     e( 35 - 36) =     -3.02378  eV     2   -->   2 G_2            
     e( 37 - 38) =     -2.11279  eV     2   -->   2 G_2            
     e( 39 - 40) =     -1.71771  eV     2   -->   2 G_2            
     e( 41 - 42) =      0.21860  eV     2   -->   2 G_2            
     e( 43 - 44) =      1.35064  eV     2   -->   2 G_2            
     e( 45 - 46) =      1.35962  eV     2   -->   2 G_2            
     e( 47 - 48) =      1.52091  eV     2   -->   2 G_2            

 **************************************************************************

 **************************************************************************

                    xk=(   0.37500,   0.00000,   0.00000  )

     Band symmetry, C_1 (1)     double point group:

     e(  1 -  2) =    -22.31295  eV     2   -->   2 G_2            
     e(  3 -  4) =    -22.31214  eV     2   -->   2 G_2            
     e(  5 -  6) =    -22.29804  eV     2   -->   2 G_2            
     e(  7 -  8) =    -22.29520  eV     2   -->   2 G_2            
     e(  9 - 10) =    -22.27827  eV     2   -->   2 G_2            
     e( 11 - 12) =    -22.26657  eV     2   -->   2 G_2            
     e( 13 - 14) =    -22.24602  eV     2   -->   2 G_2            
     e( 15 - 16) =    -22.23968  eV     2   -->   2 G_2            
     e( 17 - 18) =    -22.23623  eV     2   -->   2 G_2            
     e( 19 - 20) =    -22.22978  eV     2   -->   2 G_2            
     e( 21 - 22) =    -13.95823  eV     2   -->   2 G_2            
     e( 23 - 24) =    -13.31400  eV     2   -->   2 G_2            
     e( 25 - 26) =     -8.55260  eV     2   -->   2 G_2            
     e( 27 - 28) =     -7.85035  eV     2   -->   2 G_2            
     e( 29 - 30) =     -4.29033  eV     2   -->   2 G_2            
     e( 31 - 32) =     -3.96735  eV     2   -->   2 G_2            
     e( 33 - 34) =     -3.53942  eV     2   -->   2 G_2            
     e( 35 - 36) =     -3.04659  eV     2   -->   2 G_2            
     e( 37 - 38) =     -2.12423  eV     2   -->   2 G_2            
     e( 39 - 40) =     -1.66109  eV     2   -->   2 G_2            
     e( 41 - 42) =      0.12514  eV     2   -->   2 G_2            
     e( 43 - 44) =      1.30287  eV     2   -->   2 G_2            
     e( 45 - 46) =      1.32345  eV     2   -->   2 G_2            
     e( 47 - 48) =      1.47158  eV     2   -->   2 G_2            

 **************************************************************************

 **************************************************************************

                    xk=(   0.40000,   0.00000,   0.00000  )

     Band symmetry, C_1 (1)     double point group:

     e(  1 -  2) =    -22.31340  eV     2   -->   2 G_2            
     e(  3 -  4) =    -22.31268  eV     2   -->   2 G_2            
     e(  5 -  6) =    -22.29723  eV     2   -->   2 G_2            
     e(  7 -  8) =    -22.29488  eV     2   -->   2 G_2            
     e(  9 - 10) =    -22.27689  eV     2   -->   2 G_2            
     e( 11 - 12) =    -22.26746  eV     2   -->   2 G_2            
     e( 13 - 14) =    -22.24561  eV     2   -->   2 G_2            
     e( 15 - 16) =    -22.24051  eV     2   -->   2 G_2            
     e( 17 - 18) =    -22.23536  eV     2   -->   2 G_2            
     e( 19 - 20) =    -22.23014  eV     2   -->   2 G_2            
     e( 21 - 22) =    -13.88331  eV     2   -->   2 G_2            
     e( 23 - 24) =    -13.35751  eV     2   -->   2 G_2            
     e( 25 - 26) =     -8.55288  eV     2   -->   2 G_2            
     e( 27 - 28) =     -7.98220  eV     2   -->   2 G_2            
     e( 29 - 30) =     -4.20953  eV     2   -->   2 G_2            
     e( 31 - 32) =     -3.92049  eV     2   -->   2 G_2            
     e( 33 - 34) =     -3.48223  eV     2   -->   2 G_2            
     e( 35 - 36) =     -3.07825  eV     2   -->   2 G_2            
     e( 37 - 38) =     -2.11438  eV     2   -->   2 G_2            
     e( 39 - 40) =     -1.64113  eV     2   -->   2 G_2            
     e( 41 - 42) =      0.08320  eV     2   -->   2 G_2            
     e( 43 - 44) =      1.12784  eV     2   -->   2 G_2            
     e( 45 - 46) =      1.26900  eV     2   -->   2 G_2            
     e( 47 - 48) =      1.57783  eV     2   -->   2 G_2            

 **************************************************************************

 **************************************************************************

                    xk=(   0.42500,   0.00000,   0.00000  )

     Band symmetry, C_1 (1)     double point group:

     e(  1 -  2) =    -22.31374  eV     2   -->   2 G_2            
     e(  3 -  4) =    -22.31315  eV     2   -->   2 G_2            
     e(  5 -  6) =    -22.29651  eV     2   -->   2 G_2            
     e(  7 -  8) =    -22.29470  eV     2   -->   2 G_2            
     e(  9 - 10) =    -22.27554  eV     2   -->   2 G_2            
     e( 11 - 12) =    -22.26842  eV     2   -->   2 G_2            
     e( 13 - 14) =    -22.24515  eV     2   -->   2 G_2            
     e( 15 - 16) =    -22.24130  eV     2   -->   2 G_2            
     e( 17 - 18) =    -22.23452  eV     2   -->   2 G_2            
     e( 19 - 20) =    -22.23056  eV     2   -->   2 G_2            
     e( 21 - 22) =    -13.80819  eV     2   -->   2 G_2            
     e( 23 - 24) =    -13.40751  eV     2   -->   2 G_2            
     e( 25 - 26) =     -8.53660  eV     2   -->   2 G_2            
     e( 27 - 28) =     -8.10317  eV     2   -->   2 G_2            
     e( 29 - 30) =     -4.13052  eV     2   -->   2 G_2            
     e( 31 - 32) =     -3.89034  eV     2   -->   2 G_2            
     e( 33 - 34) =     -3.43034  eV     2   -->   2 G_2            
     e( 35 - 36) =     -3.11820  eV     2   -->   2 G_2            
     e( 37 - 38) =     -2.08134  eV     2   -->   2 G_2            
     e( 39 - 40) =     -1.66002  eV     2   -->   2 G_2            
     e( 41 - 42) =      0.09640  eV     2   -->   2 G_2            
     e( 43 - 44) =      0.93291  eV     2   -->   2 G_2            
     e( 45 - 46) =      1.25885  eV     2   -->   2 G_2            
     e( 47 - 48) =      1.61051  eV     2   -->   2 G_2            

 **************************************************************************

 **************************************************************************

                    xk=(   0.45000,   0.00000,   0.00000  )

     Band symmetry, C_1 (1)     double point group:

     e(  1 -  2) =    -22.31398  eV     2   -->   2 G_2            
     e(  3 -  4) =    -22.31352  eV     2   -->   2 G_2            
     e(  5 -  6) =    -22.29589  eV     2   -->   2 G_2            
     e(  7 -  8) =    -22.29465  eV     2   -->   2 G_2            
     e(  9 - 10) =    -22.27423  eV     2   -->   2 G_2            
     e( 11 - 12) =    -22.26945  eV     2   -->   2 G_2            
     e( 13 - 14) =    -22.24464  eV     2   -->   2 G_2            
     e( 15 - 16) =    -22.24205  eV     2   -->   2 G_2            
     e( 17 - 18) =    -22.23372  eV     2   -->   2 G_2            
     e( 19 - 20) =    -22.23105  eV     2   -->   2 G_2            
     e( 21 - 22) =    -13.73381  eV     2   -->   2 G_2            
     e( 23 - 24) =    -13.46359  eV     2   -->   2 G_2            
     e( 25 - 26) =     -8.50359  eV     2   -->   2 G_2            
     e( 27 - 28) =     -8.21197  eV     2   -->   2 G_2            
     e( 29 - 30) =     -4.05598  eV     2   -->   2 G_2            
     e( 31 - 32) =     -3.88209  eV     2   -->   2 G_2            
     e( 33 - 34) =     -3.37959  eV     2   -->   2 G_2            
     e( 35 - 36) =     -3.16521  eV     2   -->   2 G_2            
     e( 37 - 38) =     -2.02636  eV     2   -->   2 G_2            
     e( 39 - 40) =     -1.71221  eV     2   -->   2 G_2            
     e( 41 - 42) =      0.16077  eV     2   -->   2 G_2            
     e( 43 - 44) =      0.74423  eV     2   -->   2 G_2            
     e( 45 - 46) =      1.27248  eV     2   -->   2 G_2            
     e( 47 - 48) =      1.53545  eV     2   -->   2 G_2            

 **************************************************************************

 **************************************************************************

                    xk=(   0.47500,   0.00000,   0.00000  )

     Band symmetry, C_1 (1)     double point group:

     e(  1 -  2) =    -22.31410  eV     2   -->   2 G_2            
     e(  3 -  4) =    -22.31377  eV     2   -->   2 G_2            
     e(  5 -  6) =    -22.29541  eV     2   -->   2 G_2            
     e(  7 -  8) =    -22.29473  eV     2   -->   2 G_2            
     e(  9 - 10) =    -22.27295  eV     2   -->   2 G_2            
     e( 11 - 12) =    -22.27055  eV     2   -->   2 G_2            
     e( 13 - 14) =    -22.24407  eV     2   -->   2 G_2            
     e( 15 - 16) =    -22.24275  eV     2   -->   2 G_2            
     e( 17 - 18) =    -22.23297  eV     2   -->   2 G_2            
     e( 19 - 20) =    -22.23161  eV     2   -->   2 G_2            
     e( 21 - 22) =    -13.66117  eV     2   -->   2 G_2            
     e( 23 - 24) =    -13.52511  eV     2   -->   2 G_2            
     e( 25 - 26) =     -8.45403  eV     2   -->   2 G_2            
     e( 27 - 28) =     -8.30739  eV     2   -->   2 G_2            
     e( 29 - 30) =     -3.98934  eV     2   -->   2 G_2            
     e( 31 - 32) =     -3.89765  eV     2   -->   2 G_2            
     e( 33 - 34) =     -3.32694  eV     2   -->   2 G_2            
     e( 35 - 36) =     -3.21737  eV     2   -->   2 G_2            
     e( 37 - 38) =     -1.95385  eV     2   -->   2 G_2            
     e( 39 - 40) =     -1.78661  eV     2   -->   2 G_2            
     e( 41 - 42) =      0.26713  eV     2   -->   2 G_2            
     e( 43 - 44) =      0.56656  eV     2   -->   2 G_2            
     e( 45 - 46) =      1.30922  eV     2   -->   2 G_2            
     e( 47 - 48) =      1.44514  eV     2   -->   2 G_2            

 **************************************************************************

 **************************************************************************

                    xk=(   0.50000,   0.00000,   0.00000  )

     zone border point and non-symmorphic group 
     symmetry decomposition not available

 **************************************************************************

 **************************************************************************

                    xk=(   0.50000,   0.02429,   0.00000  )

     zone border point and non-symmorphic group 
     symmetry decomposition not available

 **************************************************************************

 **************************************************************************

                    xk=(   0.50000,   0.04859,   0.00000  )

     zone border point and non-symmorphic group 
     symmetry decomposition not available

 **************************************************************************

 **************************************************************************

                    xk=(   0.50000,   0.07288,   0.00000  )

     zone border point and non-symmorphic group 
     symmetry decomposition not available

 **************************************************************************

 **************************************************************************

                    xk=(   0.50000,   0.09718,   0.00000  )

     zone border point and non-symmorphic group 
     symmetry decomposition not available

 **************************************************************************

 **************************************************************************

                    xk=(   0.50000,   0.12147,   0.00000  )

     zone border point and non-symmorphic group 
     symmetry decomposition not available

 **************************************************************************

 **************************************************************************

                    xk=(   0.50000,   0.14576,   0.00000  )

     zone border point and non-symmorphic group 
     symmetry decomposition not available

 **************************************************************************

 **************************************************************************

                    xk=(   0.50000,   0.17006,   0.00000  )

     zone border point and non-symmorphic group 
     symmetry decomposition not available

 **************************************************************************

 **************************************************************************

                    xk=(   0.50000,   0.19435,   0.00000  )

     zone border point and non-symmorphic group 
     symmetry decomposition not available

 **************************************************************************

 **************************************************************************

                    xk=(   0.50000,   0.21865,   0.00000  )

     zone border point and non-symmorphic group 
     symmetry decomposition not available

 **************************************************************************

 **************************************************************************

                    xk=(   0.50000,   0.24294,   0.00000  )

     zone border point and non-symmorphic group 
     symmetry decomposition not available

 **************************************************************************

 **************************************************************************

                    xk=(   0.50000,   0.26723,   0.00000  )

     zone border point and non-symmorphic group 
     symmetry decomposition not available

 **************************************************************************

 **************************************************************************

                    xk=(   0.50000,   0.29153,   0.00000  )

     zone border point and non-symmorphic group 
     symmetry decomposition not available

 **************************************************************************

 **************************************************************************

                    xk=(   0.50000,   0.31582,   0.00000  )

     zone border point and non-symmorphic group 
     symmetry decomposition not available

 **************************************************************************

 **************************************************************************

                    xk=(   0.50000,   0.34012,   0.00000  )

     zone border point and non-symmorphic group 
     symmetry decomposition not available

 **************************************************************************

 **************************************************************************

                    xk=(   0.50000,   0.36441,   0.00000  )

     zone border point and non-symmorphic group 
     symmetry decomposition not available

 **************************************************************************

 **************************************************************************

                    xk=(   0.50000,   0.38870,   0.00000  )

     zone border point and non-symmorphic group 
     symmetry decomposition not available

 **************************************************************************

 **************************************************************************

                    xk=(   0.50000,   0.41300,   0.00000  )

     zone border point and non-symmorphic group 
     symmetry decomposition not available

 **************************************************************************

 **************************************************************************

                    xk=(   0.50000,   0.43729,   0.00000  )

     zone border point and non-symmorphic group 
     symmetry decomposition not available

 **************************************************************************

 **************************************************************************

                    xk=(   0.50000,   0.46159,   0.00000  )

     zone border point and non-symmorphic group 
     symmetry decomposition not available

 **************************************************************************

 **************************************************************************

                    xk=(   0.50000,   0.48588,   0.00000  )

     zone border point and non-symmorphic group 
     symmetry decomposition not available

 **************************************************************************

 **************************************************************************

                    xk=(   0.47500,   0.48588,   0.00000  )

     double point group C_1 (1)    
     there are  2 classes and  1 irreducible representations
     the character table:

       E     -E   
                  
G_2    1.00 -1.00

     the symmetry operations in each class and the name of the first element:

     E             1
                                                                 
     -E           -1
                                                                 

     Band symmetry, C_1 (1)     double point group:

     e(  1 -  2) =    -22.32785  eV     2   -->   2 G_2            
     e(  3 -  4) =    -22.32758  eV     2   -->   2 G_2            
     e(  5 -  6) =    -22.28715  eV     2   -->   2 G_2            
     e(  7 -  8) =    -22.28685  eV     2   -->   2 G_2            
     e(  9 - 10) =    -22.26891  eV     2   -->   2 G_2            
     e( 11 - 12) =    -22.26871  eV     2   -->   2 G_2            
     e( 13 - 16) =    -22.24456  eV     4   -->   4 G_2            
     e( 17 - 18) =    -22.22946  eV     2   -->   2 G_2            
     e( 19 - 20) =    -22.22933  eV     2   -->   2 G_2            
     e( 21 - 22) =    -13.32735  eV     2   -->   2 G_2            
     e( 23 - 24) =    -13.32704  eV     2   -->   2 G_2            
     e( 25 - 26) =     -7.64550  eV     2   -->   2 G_2            
     e( 27 - 28) =     -7.64534  eV     2   -->   2 G_2            
     e( 29 - 32) =     -5.75312  eV     4   -->   4 G_2            
     e( 33 - 36) =     -4.58998  eV     4   -->   4 G_2            
     e( 37 - 40) =     -2.86030  eV     4   -->   4 G_2            
     e( 41 - 42) =      2.31517  eV     2   -->   2 G_2            
     e( 43 - 44) =      2.31530  eV     2   -->   2 G_2            
     e( 45 - 48) =      3.11466  eV     4   -->   4 G_2            

 **************************************************************************

 **************************************************************************

                    xk=(   0.45000,   0.48588,   0.00000  )

     Band symmetry, C_1 (1)     double point group:

     e(  1 -  2) =    -22.32751  eV     2   -->   2 G_2            
     e(  3 -  4) =    -22.32724  eV     2   -->   2 G_2            
     e(  5 -  6) =    -22.28742  eV     2   -->   2 G_2            
     e(  7 -  8) =    -22.28712  eV     2   -->   2 G_2            
     e(  9 - 10) =    -22.26889  eV     2   -->   2 G_2            
     e( 11 - 12) =    -22.26870  eV     2   -->   2 G_2            
     e( 13 - 16) =    -22.24455  eV     4   -->   4 G_2            
     e( 17 - 18) =    -22.22955  eV     2   -->   2 G_2            
     e( 19 - 20) =    -22.22943  eV     2   -->   2 G_2            
     e( 21 - 22) =    -13.33503  eV     2   -->   2 G_2            
     e( 23 - 24) =    -13.33471  eV     2   -->   2 G_2            
     e( 25 - 26) =     -7.65407  eV     2   -->   2 G_2            
     e( 27 - 28) =     -7.65391  eV     2   -->   2 G_2            
     e( 29 - 32) =     -5.74694  eV     4   -->   4 G_2            
     e( 33 - 36) =     -4.53858  eV     4   -->   4 G_2            
     e( 37 - 40) =     -2.85934  eV     4   -->   4 G_2            
     e( 41 - 42) =      2.29185  eV     2   -->   2 G_2            
     e( 43 - 44) =      2.29199  eV     2   -->   2 G_2            
     e( 45 - 46) =      3.08566  eV     2   -->   2 G_2            
     e( 47 - 48) =      3.08577  eV     2   -->   2 G_2            

 **************************************************************************

 **************************************************************************

                    xk=(   0.42500,   0.48588,   0.00000  )

     Band symmetry, C_1 (1)     double point group:

     e(  1 -  2) =    -22.32696  eV     2   -->   2 G_2            
     e(  3 -  4) =    -22.32669  eV     2   -->   2 G_2            
     e(  5 -  6) =    -22.28786  eV     2   -->   2 G_2            
     e(  7 -  8) =    -22.28756  eV     2   -->   2 G_2            
     e(  9 - 10) =    -22.26885  eV     2   -->   2 G_2            
     e( 11 - 12) =    -22.26866  eV     2   -->   2 G_2            
     e( 13 - 16) =    -22.24453  eV     4   -->   4 G_2            
     e( 17 - 18) =    -22.22970  eV     2   -->   2 G_2            
     e( 19 - 20) =    -22.22958  eV     2   -->   2 G_2            
     e( 21 - 22) =    -13.34753  eV     2   -->   2 G_2            
     e( 23 - 24) =    -13.34722  eV     2   -->   2 G_2            
     e( 25 - 26) =     -7.66888  eV     2   -->   2 G_2            
     e( 27 - 28) =     -7.66872  eV     2   -->   2 G_2            
     e( 29 - 30) =     -5.73198  eV     2   -->   2 G_2            
     e( 31 - 32) =     -5.73187  eV     2   -->   2 G_2            
     e( 33 - 36) =     -4.45848  eV     4   -->   4 G_2            
     e( 37 - 40) =     -2.85662  eV     4   -->   4 G_2            
     e( 41 - 42) =      2.25078  eV     2   -->   2 G_2            
     e( 43 - 44) =      2.25093  eV     2   -->   2 G_2            
     e( 45 - 46) =      3.04367  eV     2   -->   2 G_2            
     e( 47 - 48) =      3.04381  eV     2   -->   2 G_2            

 **************************************************************************

 **************************************************************************

                    xk=(   0.40000,   0.48588,   0.00000  )

     Band symmetry, C_1 (1)     double point group:

     e(  1 -  2) =    -22.32620  eV     2   -->   2 G_2            
     e(  3 -  4) =    -22.32593  eV     2   -->   2 G_2            
     e(  5 -  6) =    -22.28846  eV     2   -->   2 G_2            
     e(  7 -  8) =    -22.28816  eV     2   -->   2 G_2            
     e(  9 - 10) =    -22.26882  eV     2   -->   2 G_2            
     e( 11 - 12) =    -22.26862  eV     2   -->   2 G_2            
     e( 13 - 16) =    -22.24450  eV     4   -->   4 G_2            
     e( 17 - 18) =    -22.22992  eV     2   -->   2 G_2            
     e( 19 - 20) =    -22.22980  eV     2   -->   2 G_2            
     e( 21 - 22) =    -13.36445  eV     2   -->   2 G_2            
     e( 23 - 24) =    -13.36413  eV     2   -->   2 G_2            
     e( 25 - 26) =     -7.69037  eV     2   -->   2 G_2            
     e( 27 - 28) =     -7.69020  eV     2   -->   2 G_2            
     e( 29 - 30) =     -5.70336  eV     2   -->   2 G_2            
     e( 31 - 32) =     -5.70323  eV     2   -->   2 G_2            
     e( 33 - 36) =     -4.35639  eV     4   -->   4 G_2            
     e( 37 - 40) =     -2.85035  eV     4   -->   4 G_2            
     e( 41 - 42) =      2.18974  eV     2   -->   2 G_2            
     e( 43 - 44) =      2.18989  eV     2   -->   2 G_2            
     e( 45 - 46) =      2.99293  eV     2   -->   2 G_2            
     e( 47 - 48) =      2.99309  eV     2   -->   2 G_2            

 **************************************************************************

 **************************************************************************

                    xk=(   0.37500,   0.48588,   0.00000  )

     Band symmetry, C_1 (1)     double point group:

     e(  1 -  2) =    -22.32527  eV     2   -->   2 G_2            
     e(  3 -  4) =    -22.32500  eV     2   -->   2 G_2            
     e(  5 -  6) =    -22.28923  eV     2   -->   2 G_2            
     e(  7 -  8) =    -22.28893  eV     2   -->   2 G_2            
     e(  9 - 10) =    -22.26880  eV     2   -->   2 G_2            
     e( 11 - 12) =    -22.26859  eV     2   -->   2 G_2            
     e( 13 - 16) =    -22.24446  eV     4   -->   4 G_2            
     e( 17 - 18) =    -22.23019  eV     2   -->   2 G_2            
     e( 19 - 20) =    -22.23007  eV     2   -->   2 G_2            
     e( 21 - 22) =    -13.38523  eV     2   -->   2 G_2            
     e( 23 - 24) =    -13.38492  eV     2   -->   2 G_2            
     e( 25 - 26) =     -7.71870  eV     2   -->   2 G_2            
     e( 27 - 28) =     -7.71853  eV     2   -->   2 G_2            
     e( 29 - 30) =     -5.65694  eV     2   -->   2 G_2            
     e( 31 - 32) =     -5.65678  eV     2   -->   2 G_2            
     e( 33 - 36) =     -4.23978  eV     4   -->   4 G_2            
     e( 37 - 40) =     -2.83777  eV     4   -->   4 G_2            
     e( 41 - 42) =      2.10703  eV     2   -->   2 G_2            
     e( 43 - 44) =      2.10718  eV     2   -->   2 G_2            
     e( 45 - 46) =      2.93418  eV     2   -->   2 G_2            
     e( 47 - 48) =      2.93434  eV     2   -->   2 G_2            

 **************************************************************************

 **************************************************************************

                    xk=(   0.35000,   0.48588,   0.00000  )

     Band symmetry, C_1 (1)     double point group:

     e(  1 -  2) =    -22.32417  eV     2   -->   2 G_2            
     e(  3 -  4) =    -22.32390  eV     2   -->   2 G_2            
     e(  5 -  6) =    -22.29014  eV     2   -->   2 G_2            
     e(  7 -  8) =    -22.28984  eV     2   -->   2 G_2            
     e(  9 - 10) =    -22.26878  eV     2   -->   2 G_2            
     e( 11 - 12) =    -22.26857  eV     2   -->   2 G_2            
     e( 13 - 16) =    -22.24437  eV     4   -->   4 G_2            
     e( 17 - 18) =    -22.23050  eV     2   -->   2 G_2            
     e( 19 - 20) =    -22.23039  eV     2   -->   2 G_2            
     e( 21 - 22) =    -13.40923  eV     2   -->   2 G_2            
     e( 23 - 24) =    -13.40892  eV     2   -->   2 G_2            
     e( 25 - 26) =     -7.75352  eV     2   -->   2 G_2            
     e( 27 - 28) =     -7.75335  eV     2   -->   2 G_2            
     e( 29 - 30) =     -5.59002  eV     2   -->   2 G_2            
     e( 31 - 32) =     -5.58984  eV     2   -->   2 G_2            
     e( 33 - 36) =     -4.11657  eV     4   -->   4 G_2            
     e( 37 - 40) =     -2.81502  eV     4   -->   4 G_2            
     e( 41 - 42) =      2.00182  eV     2   -->   2 G_2            
     e( 43 - 44) =      2.00196  eV     2   -->   2 G_2            
     e( 45 - 46) =      2.86515  eV     2   -->   2 G_2            
     e( 47 - 48) =      2.86530  eV     2   -->   2 G_2            

 **************************************************************************

 **************************************************************************

                    xk=(   0.32500,   0.48588,   0.00000  )

     Band symmetry, C_1 (1)     double point group:

     e(  1 -  2) =    -22.32292  eV     2   -->   2 G_2            
     e(  3 -  4) =    -22.32265  eV     2   -->   2 G_2            
     e(  5 -  6) =    -22.29117  eV     2   -->   2 G_2            
     e(  7 -  8) =    -22.29087  eV     2   -->   2 G_2            
     e(  9 - 10) =    -22.26879  eV     2   -->   2 G_2            
     e( 11 - 12) =    -22.26857  eV     2   -->   2 G_2            
     e( 13 - 16) =    -22.24425  eV     4   -->   4 G_2            
     e( 17 - 18) =    -22.23086  eV     2   -->   2 G_2            
     e( 19 - 20) =    -22.23075  eV     2   -->   2 G_2            
     e( 21 - 22) =    -13.43573  eV     2   -->   2 G_2            
     e( 23 - 24) =    -13.43541  eV     2   -->   2 G_2            
     e( 25 - 26) =     -7.79390  eV     2   -->   2 G_2            
     e( 27 - 28) =     -7.79373  eV     2   -->   2 G_2            
     e( 29 - 30) =     -5.50150  eV     2   -->   2 G_2            
     e( 31 - 32) =     -5.50131  eV     2   -->   2 G_2            
     e( 33 - 36) =     -3.99514  eV     4   -->   4 G_2            
     e( 37 - 38) =     -2.77708  eV     2   -->   2 G_2            
     e( 39 - 40) =     -2.77698  eV     2   -->   2 G_2            
     e( 41 - 42) =      1.87382  eV     2   -->   2 G_2            
     e( 43 - 44) =      1.87394  eV     2   -->   2 G_2            
     e( 45 - 46) =      2.78311  eV     2   -->   2 G_2            
     e( 47 - 48) =      2.78325  eV     2   -->   2 G_2            

 **************************************************************************

 **************************************************************************

                    xk=(   0.30000,   0.48588,   0.00000  )

     Band symmetry, C_1 (1)     double point group:

     e(  1 -  2) =    -22.32156  eV     2   -->   2 G_2            
     e(  3 -  4) =    -22.32129  eV     2   -->   2 G_2            
     e(  5 -  6) =    -22.29230  eV     2   -->   2 G_2            
     e(  7 -  8) =    -22.29201  eV     2   -->   2 G_2            
     e(  9 - 10) =    -22.26882  eV     2   -->   2 G_2            
     e( 11 - 12) =    -22.26859  eV     2   -->   2 G_2            
     e( 13 - 16) =    -22.24407  eV     4   -->   4 G_2            
     e( 17 - 20) =    -22.23125  eV     4   -->   4 G_2            
     e( 21 - 22) =    -13.46397  eV     2   -->   2 G_2            
     e( 23 - 24) =    -13.46365  eV     2   -->   2 G_2            
     e( 25 - 26) =     -7.83851  eV     2   -->   2 G_2            
     e( 27 - 28) =     -7.83833  eV     2   -->   2 G_2            
     e( 29 - 30) =     -5.39162  eV     2   -->   2 G_2            
     e( 31 - 32) =     -5.39142  eV     2   -->   2 G_2            
     e( 33 - 36) =     -3.88396  eV     4   -->   4 G_2            
     e( 37 - 38) =     -2.71841  eV     2   -->   2 G_2            
     e( 39 - 40) =     -2.71828  eV     2   -->   2 G_2            
     e( 41 - 44) =      1.72310  eV     4   -->   4 G_2            
     e( 45 - 46) =      2.68779  eV     2   -->   2 G_2            
     e( 47 - 48) =      2.68791  eV     2   -->   2 G_2            

 **************************************************************************

 **************************************************************************

                    xk=(   0.27500,   0.48588,   0.00000  )

     Band symmetry, C_1 (1)     double point group:

     e(  1 -  2) =    -22.32011  eV     2   -->   2 G_2            
     e(  3 -  4) =    -22.31984  eV     2   -->   2 G_2            
     e(  5 -  6) =    -22.29352  eV     2   -->   2 G_2            
     e(  7 -  8) =    -22.29323  eV     2   -->   2 G_2            
     e(  9 - 10) =    -22.26887  eV     2   -->   2 G_2            
     e( 11 - 12) =    -22.26864  eV     2   -->   2 G_2            
     e( 13 - 16) =    -22.24383  eV     4   -->   4 G_2            
     e( 17 - 20) =    -22.23168  eV     4   -->   4 G_2            
     e( 21 - 22) =    -13.49318  eV     2   -->   2 G_2            
     e( 23 - 24) =    -13.49287  eV     2   -->   2 G_2            
     e( 25 - 26) =     -7.88574  eV     2   -->   2 G_2            
     e( 27 - 28) =     -7.88555  eV     2   -->   2 G_2            
     e( 29 - 30) =     -5.26165  eV     2   -->   2 G_2            
     e( 31 - 32) =     -5.26144  eV     2   -->   2 G_2            
     e( 33 - 36) =     -3.79024  eV     4   -->   4 G_2            
     e( 37 - 38) =     -2.63451  eV     2   -->   2 G_2            
     e( 39 - 40) =     -2.63434  eV     2   -->   2 G_2            
     e( 41 - 44) =      1.55055  eV     4   -->   4 G_2            
     e( 45 - 48) =      2.58247  eV     4   -->   4 G_2            

 **************************************************************************

 **************************************************************************

                    xk=(   0.25000,   0.48588,   0.00000  )

     Band symmetry, C_1 (1)     double point group:

     e(  1 -  2) =    -22.31859  eV     2   -->   2 G_2            
     e(  3 -  4) =    -22.31832  eV     2   -->   2 G_2            
     e(  5 -  6) =    -22.29479  eV     2   -->   2 G_2            
     e(  7 -  8) =    -22.29450  eV     2   -->   2 G_2            
     e(  9 - 10) =    -22.26896  eV     2   -->   2 G_2            
     e( 11 - 12) =    -22.26872  eV     2   -->   2 G_2            
     e( 13 - 16) =    -22.24353  eV     4   -->   4 G_2            
     e( 17 - 20) =    -22.23214  eV     4   -->   4 G_2            
     e( 21 - 22) =    -13.52261  eV     2   -->   2 G_2            
     e( 23 - 24) =    -13.52230  eV     2   -->   2 G_2            
     e( 25 - 26) =     -7.93396  eV     2   -->   2 G_2            
     e( 27 - 28) =     -7.93377  eV     2   -->   2 G_2            
     e( 29 - 30) =     -5.11352  eV     2   -->   2 G_2            
     e( 31 - 32) =     -5.11330  eV     2   -->   2 G_2            
     e( 33 - 36) =     -3.71793  eV     4   -->   4 G_2            
     e( 37 - 38) =     -2.52437  eV     2   -->   2 G_2            
     e( 39 - 40) =     -2.52417  eV     2   -->   2 G_2            
     e( 41 - 44) =      1.35884  eV     4   -->   4 G_2            
     e( 45 - 48) =      2.47247  eV     4   -->   4 G_2            

 **************************************************************************

 **************************************************************************

                    xk=(   0.22500,   0.48588,   0.00000  )

     Band symmetry, C_1 (1)     double point group:

     e(  1 -  2) =    -22.31705  eV     2   -->   2 G_2            
     e(  3 -  4) =    -22.31679  eV     2   -->   2 G_2            
     e(  5 -  6) =    -22.29609  eV     2   -->   2 G_2            
     e(  7 -  8) =    -22.29580  eV     2   -->   2 G_2            
     e(  9 - 10) =    -22.26908  eV     2   -->   2 G_2            
     e( 11 - 12) =    -22.26883  eV     2   -->   2 G_2            
     e( 13 - 16) =    -22.24317  eV     4   -->   4 G_2            
     e( 17 - 20) =    -22.23263  eV     4   -->   4 G_2            
     e( 21 - 22) =    -13.55153  eV     2   -->   2 G_2            
     e( 23 - 24) =    -13.55122  eV     2   -->   2 G_2            
     e( 25 - 26) =     -7.98163  eV     2   -->   2 G_2            
     e( 27 - 28) =     -7.98144  eV     2   -->   2 G_2            
     e( 29 - 30) =     -4.94973  eV     2   -->   2 G_2            
     e( 31 - 32) =     -4.94951  eV     2   -->   2 G_2            
     e( 33 - 34) =     -3.66662  eV     2   -->   2 G_2            
     e( 35 - 36) =     -3.66651  eV     2   -->   2 G_2            
     e( 37 - 38) =     -2.39191  eV     2   -->   2 G_2            
     e( 39 - 40) =     -2.39168  eV     2   -->   2 G_2            
     e( 41 - 44) =      1.15326  eV     4   -->   4 G_2            
     e( 45 - 48) =      2.36254  eV     4   -->   4 G_2            

 **************************************************************************

 **************************************************************************

                    xk=(   0.20000,   0.48588,   0.00000  )

     Band symmetry, C_1 (1)     double point group:

     e(  1 -  2) =    -22.31552  eV     2   -->   2 G_2            
     e(  3 -  4) =    -22.31525  eV     2   -->   2 G_2            
     e(  5 -  6) =    -22.29738  eV     2   -->   2 G_2            
     e(  7 -  8) =    -22.29709  eV     2   -->   2 G_2            
     e(  9 - 10) =    -22.26923  eV     2   -->   2 G_2            
     e( 11 - 12) =    -22.26897  eV     2   -->   2 G_2            
     e( 13 - 16) =    -22.24275  eV     4   -->   4 G_2            
     e( 17 - 20) =    -22.23314  eV     4   -->   4 G_2            
     e( 21 - 22) =    -13.57928  eV     2   -->   2 G_2            
     e( 23 - 24) =    -13.57897  eV     2   -->   2 G_2            
     e( 25 - 26) =     -8.02740  eV     2   -->   2 G_2            
     e( 27 - 28) =     -8.02721  eV     2   -->   2 G_2            
     e( 29 - 30) =     -4.77326  eV     2   -->   2 G_2            
     e( 31 - 32) =     -4.77303  eV     2   -->   2 G_2            
     e( 33 - 34) =     -3.63258  eV     2   -->   2 G_2            
     e( 35 - 36) =     -3.63245  eV     2   -->   2 G_2            
     e( 37 - 38) =     -2.24546  eV     2   -->   2 G_2            
     e( 39 - 40) =     -2.24522  eV     2   -->   2 G_2            
     e( 41 - 42) =      0.94201  eV     2   -->   2 G_2            
     e( 43 - 44) =      0.94211  eV     2   -->   2 G_2            
     e( 45 - 48) =      2.25504  eV     4   -->   4 G_2            

 **************************************************************************

 **************************************************************************

                    xk=(   0.17500,   0.48588,   0.00000  )

     Band symmetry, C_1 (1)     double point group:

     e(  1 -  2) =    -22.31402  eV     2   -->   2 G_2            
     e(  3 -  4) =    -22.31376  eV     2   -->   2 G_2            
     e(  5 -  6) =    -22.29865  eV     2   -->   2 G_2            
     e(  7 -  8) =    -22.29836  eV     2   -->   2 G_2            
     e(  9 - 10) =    -22.26940  eV     2   -->   2 G_2            
     e( 11 - 12) =    -22.26913  eV     2   -->   2 G_2            
     e( 13 - 16) =    -22.24227  eV     4   -->   4 G_2            
     e( 17 - 20) =    -22.23367  eV     4   -->   4 G_2            
     e( 21 - 22) =    -13.60524  eV     2   -->   2 G_2            
     e( 23 - 24) =    -13.60493  eV     2   -->   2 G_2            
     e( 25 - 26) =     -8.07009  eV     2   -->   2 G_2            
     e( 27 - 28) =     -8.06990  eV     2   -->   2 G_2            
     e( 29 - 30) =     -4.58777  eV     2   -->   2 G_2            
     e( 31 - 32) =     -4.58754  eV     2   -->   2 G_2            
     e( 33 - 34) =     -3.61073  eV     2   -->   2 G_2            
     e( 35 - 36) =     -3.61060  eV     2   -->   2 G_2            
     e( 37 - 38) =     -2.09645  eV     2   -->   2 G_2            
     e( 39 - 40) =     -2.09619  eV     2   -->   2 G_2            
     e( 41 - 42) =      0.73610  eV     2   -->   2 G_2            
     e( 43 - 44) =      0.73623  eV     2   -->   2 G_2            
     e( 45 - 48) =      2.14946  eV     4   -->   4 G_2            

 **************************************************************************

 **************************************************************************

                    xk=(   0.15000,   0.48588,   0.00000  )

     Band symmetry, C_1 (1)     double point group:

     e(  1 -  2) =    -22.31259  eV     2   -->   2 G_2            
     e(  3 -  4) =    -22.31232  eV     2   -->   2 G_2            
     e(  5 -  6) =    -22.29985  eV     2   -->   2 G_2            
     e(  7 -  8) =    -22.29957  eV     2   -->   2 G_2            
     e(  9 - 10) =    -22.26957  eV     2   -->   2 G_2            
     e( 11 - 12) =    -22.26930  eV     2   -->   2 G_2            
     e( 13 - 16) =    -22.24174  eV     4   -->   4 G_2            
     e( 17 - 20) =    -22.23422  eV     4   -->   4 G_2            
     e( 21 - 22) =    -13.62885  eV     2   -->   2 G_2            
     e( 23 - 24) =    -13.62854  eV     2   -->   2 G_2            
     e( 25 - 26) =     -8.10876  eV     2   -->   2 G_2            
     e( 27 - 28) =     -8.10857  eV     2   -->   2 G_2            
     e( 29 - 30) =     -4.39802  eV     2   -->   2 G_2            
     e( 31 - 32) =     -4.39779  eV     2   -->   2 G_2            
     e( 33 - 34) =     -3.59596  eV     2   -->   2 G_2            
     e( 35 - 36) =     -3.59582  eV     2   -->   2 G_2            
     e( 37 - 38) =     -1.95852  eV     2   -->   2 G_2            
     e( 39 - 40) =     -1.95826  eV     2   -->   2 G_2            
     e( 41 - 42) =      0.54931  eV     2   -->   2 G_2            
     e( 43 - 44) =      0.54946  eV     2   -->   2 G_2            
     e( 45 - 48) =      2.04258  eV     4   -->   4 G_2            

 **************************************************************************

 **************************************************************************

                    xk=(   0.12500,   0.48588,   0.00000  )

     Band symmetry, C_1 (1)     double point group:

     e(  1 -  2) =    -22.31125  eV     2   -->   2 G_2            
     e(  3 -  4) =    -22.31099  eV     2   -->   2 G_2            
     e(  5 -  6) =    -22.30099  eV     2   -->   2 G_2            
     e(  7 -  8) =    -22.30071  eV     2   -->   2 G_2            
     e(  9 - 10) =    -22.26976  eV     2   -->   2 G_2            
     e( 11 - 12) =    -22.26948  eV     2   -->   2 G_2            
     e( 13 - 16) =    -22.24118  eV     4   -->   4 G_2            
     e( 17 - 20) =    -22.23480  eV     4   -->   4 G_2            
     e( 21 - 22) =    -13.64965  eV     2   -->   2 G_2            
     e( 23 - 24) =    -13.64934  eV     2   -->   2 G_2            
     e( 25 - 26) =     -8.14263  eV     2   -->   2 G_2            
     e( 27 - 28) =     -8.14243  eV     2   -->   2 G_2            
     e( 29 - 30) =     -4.21079  eV     2   -->   2 G_2            
     e( 31 - 32) =     -4.21055  eV     2   -->   2 G_2            
     e( 33 - 34) =     -3.58314  eV     2   -->   2 G_2            
     e( 35 - 36) =     -3.58299  eV     2   -->   2 G_2            
     e( 37 - 38) =     -1.84701  eV     2   -->   2 G_2            
     e( 39 - 40) =     -1.84675  eV     2   -->   2 G_2            
     e( 41 - 42) =      0.39765  eV     2   -->   2 G_2            
     e( 43 - 44) =      0.39782  eV     2   -->   2 G_2            
     e( 45 - 46) =      1.92940  eV     2   -->   2 G_2            
     e( 47 - 48) =      1.92953  eV     2   -->   2 G_2            

 **************************************************************************

 **************************************************************************

                    xk=(   0.10000,   0.48588,   0.00000  )

     Band symmetry, C_1 (1)     double point group:

     e(  1 -  2) =    -22.31002  eV     2   -->   2 G_2            
     e(  3 -  4) =    -22.30976  eV     2   -->   2 G_2            
     e(  5 -  6) =    -22.30203  eV     2   -->   2 G_2            
     e(  7 -  8) =    -22.30176  eV     2   -->   2 G_2            
     e(  9 - 10) =    -22.26993  eV     2   -->   2 G_2            
     e( 11 - 12) =    -22.26964  eV     2   -->   2 G_2            
     e( 13 - 16) =    -22.24058  eV     4   -->   4 G_2            
     e( 17 - 20) =    -22.23540  eV     4   -->   4 G_2            
     e( 21 - 22) =    -13.66721  eV     2   -->   2 G_2            
     e( 23 - 24) =    -13.66690  eV     2   -->   2 G_2            
     e( 25 - 26) =     -8.17109  eV     2   -->   2 G_2            
     e( 27 - 28) =     -8.17089  eV     2   -->   2 G_2            
     e( 29 - 30) =     -4.03665  eV     2   -->   2 G_2            
     e( 31 - 32) =     -4.03643  eV     2   -->   2 G_2            
     e( 33 - 34) =     -3.56605  eV     2   -->   2 G_2            
     e( 35 - 36) =     -3.56587  eV     2   -->   2 G_2            
     e( 37 - 38) =     -1.77620  eV     2   -->   2 G_2            
     e( 39 - 40) =     -1.77594  eV     2   -->   2 G_2            
     e( 41 - 42) =      0.29647  eV     2   -->   2 G_2            
     e( 43 - 44) =      0.29664  eV     2   -->   2 G_2            
     e( 45 - 46) =      1.80602  eV     2   -->   2 G_2            
     e( 47 - 48) =      1.80619  eV     2   -->   2 G_2            

 **************************************************************************

 **************************************************************************

                    xk=(   0.07500,   0.48588,   0.00000  )

     Band symmetry, C_1 (1)     double point group:

     e(  1 -  2) =    -22.30894  eV     2   -->   2 G_2            
     e(  3 -  4) =    -22.30867  eV     2   -->   2 G_2            
     e(  5 -  6) =    -22.30298  eV     2   -->   2 G_2            
     e(  7 -  8) =    -22.30271  eV     2   -->   2 G_2            
     e(  9 - 10) =    -22.27007  eV     2   -->   2 G_2            
     e( 11 - 12) =    -22.26979  eV     2   -->   2 G_2            
     e( 13 - 16) =    -22.23997  eV     4   -->   4 G_2            
     e( 17 - 20) =    -22.23601  eV     4   -->   4 G_2            
     e( 21 - 22) =    -13.68122  eV     2   -->   2 G_2            
     e( 23 - 24) =    -13.68091  eV     2   -->   2 G_2            
     e( 25 - 26) =     -8.19367  eV     2   -->   2 G_2            
     e( 27 - 28) =     -8.19348  eV     2   -->   2 G_2            
     e( 29 - 30) =     -3.89257  eV     2   -->   2 G_2            
     e( 31 - 32) =     -3.89237  eV     2   -->   2 G_2            
     e( 33 - 34) =     -3.53565  eV     2   -->   2 G_2            
     e( 35 - 36) =     -3.53545  eV     2   -->   2 G_2            
     e( 37 - 38) =     -1.75225  eV     2   -->   2 G_2            
     e( 39 - 40) =     -1.75200  eV     2   -->   2 G_2            
     e( 41 - 42) =      0.25298  eV     2   -->   2 G_2            
     e( 43 - 44) =      0.25315  eV     2   -->   2 G_2            
     e( 45 - 46) =      1.67522  eV     2   -->   2 G_2            
     e( 47 - 48) =      1.67542  eV     2   -->   2 G_2            

 **************************************************************************

 **************************************************************************

                    xk=(   0.05000,   0.48588,   0.00000  )

     Band symmetry, C_1 (1)     double point group:

     e(  1 -  2) =    -22.30799  eV     2   -->   2 G_2            
     e(  3 -  4) =    -22.30773  eV     2   -->   2 G_2            
     e(  5 -  6) =    -22.30382  eV     2   -->   2 G_2            
     e(  7 -  8) =    -22.30355  eV     2   -->   2 G_2            
     e(  9 - 10) =    -22.27019  eV     2   -->   2 G_2            
     e( 11 - 12) =    -22.26990  eV     2   -->   2 G_2            
     e( 13 - 16) =    -22.23937  eV     4   -->   4 G_2            
     e( 17 - 20) =    -22.23664  eV     4   -->   4 G_2            
     e( 21 - 22) =    -13.69141  eV     2   -->   2 G_2            
     e( 23 - 24) =    -13.69110  eV     2   -->   2 G_2            
     e( 25 - 26) =     -8.21003  eV     2   -->   2 G_2            
     e( 27 - 28) =     -8.20984  eV     2   -->   2 G_2            
     e( 29 - 30) =     -3.79777  eV     2   -->   2 G_2            
     e( 31 - 32) =     -3.79760  eV     2   -->   2 G_2            
     e( 33 - 34) =     -3.48526  eV     2   -->   2 G_2            
     e( 35 - 36) =     -3.48500  eV     2   -->   2 G_2            
     e( 37 - 38) =     -1.76555  eV     2   -->   2 G_2            
     e( 39 - 40) =     -1.76531  eV     2   -->   2 G_2            
     e( 41 - 42) =      0.25764  eV     2   -->   2 G_2            
     e( 43 - 44) =      0.25781  eV     2   -->   2 G_2            
     e( 45 - 46) =      1.55083  eV     2   -->   2 G_2            
     e( 47 - 48) =      1.55106  eV     2   -->   2 G_2            

 **************************************************************************

 **************************************************************************

                    xk=(   0.02500,   0.48588,   0.00000  )

     Band symmetry, C_1 (1)     double point group:

[...]

     Band symmetry, C_s (m)     double point group:

     e(  1 -  2) =    -22.31459  eV     2   --> G_3            
     e(  1 -  2) =    -22.31459  eV     2   --> G_4            
     e(  3 -  4) =    -22.30519  eV     2   --> G_3            
     e(  3 -  4) =    -22.30519  eV     2   --> G_4            
     e(  5 -  6) =    -22.30391  eV     2   --> G_3            
     e(  5 -  6) =    -22.30391  eV     2   --> G_4            
     e(  7 -  8) =    -22.29667  eV     2   --> G_3            
     e(  7 -  8) =    -22.29667  eV     2   --> G_4            
     e(  9 - 10) =    -22.29192  eV     2   --> G_3            
     e(  9 - 10) =    -22.29192  eV     2   --> G_4            
     e( 11 - 12) =    -22.26149  eV     2   --> G_3            
     e( 11 - 12) =    -22.26149  eV     2   --> G_4            
     e( 13 - 14) =    -22.24672  eV     2   --> G_3            
     e( 13 - 14) =    -22.24672  eV     2   --> G_4            
     e( 15 - 16) =    -22.24466  eV     2   --> G_3            
     e( 15 - 16) =    -22.24466  eV     2   --> G_4            
     e( 17 - 18) =    -22.23064  eV     2   --> G_3            
     e( 17 - 18) =    -22.23064  eV     2   --> G_4            
     e( 19 - 20) =    -22.22931  eV     2   --> G_3            
     e( 19 - 20) =    -22.22931  eV     2   --> G_4            
     e( 21 - 22) =    -14.54506  eV     2   --> G_3            
     e( 21 - 22) =    -14.54506  eV     2   --> G_4            
     e( 23 - 24) =    -13.19702  eV     2   --> G_3            
     e( 23 - 24) =    -13.19702  eV     2   --> G_4            
     e( 25 - 26) =     -7.92621  eV     2   --> G_3            
     e( 25 - 26) =     -7.92621  eV     2   --> G_4            
     e( 27 - 28) =     -6.32338  eV     2   --> G_3            
     e( 27 - 28) =     -6.32338  eV     2   --> G_4            
     e( 29 - 30) =     -4.81120  eV     2   --> G_3            
     e( 29 - 30) =     -4.81120  eV     2   --> G_4            
     e( 31 - 32) =     -4.49757  eV     2   --> G_3            
     e( 31 - 32) =     -4.49757  eV     2   --> G_4            
     e( 33 - 34) =     -4.25880  eV     2   --> G_3            
     e( 33 - 34) =     -4.25880  eV     2   --> G_4            
     e( 35 - 36) =     -3.20929  eV     2   --> G_3            
     e( 35 - 36) =     -3.20929  eV     2   --> G_4            
     e( 37 - 38) =     -2.67392  eV     2   --> G_3            
     e( 37 - 38) =     -2.67392  eV     2   --> G_4            
     e( 39 - 40) =     -1.74843  eV     2   --> G_3            
     e( 39 - 40) =     -1.74843  eV     2   --> G_4            
     e( 41 - 42) =      0.62384  eV     2   --> G_3            
     e( 41 - 42) =      0.62384  eV     2   --> G_4            
     e( 43 - 44) =      1.83253  eV     2   --> G_3            
     e( 43 - 44) =      1.83253  eV     2   --> G_4            
     e( 45 - 46) =      1.86247  eV     2   --> G_3            
     e( 45 - 46) =      1.86247  eV     2   --> G_4            
     e( 47 - 48) =      2.62260  eV     2   --> G_3            
     e( 47 - 48) =      2.62260  eV     2   --> G_4            

 **************************************************************************

 **************************************************************************

                    xk=(   0.00000,   0.09718,   0.00000  )

     Band symmetry, C_s (m)     double point group:

     e(  1 -  2) =    -22.31494  eV     2   --> G_3            
     e(  1 -  2) =    -22.31494  eV     2   --> G_4            
     e(  3 -  4) =    -22.30497  eV     2   --> G_3            
     e(  3 -  4) =    -22.30497  eV     2   --> G_4            
     e(  5 -  6) =    -22.30415  eV     2   --> G_3            
     e(  5 -  6) =    -22.30415  eV     2   --> G_4            
     e(  7 -  8) =    -22.29617  eV     2   --> G_3            
     e(  7 -  8) =    -22.29617  eV     2   --> G_4            
     e(  9 - 10) =    -22.29285  eV     2   --> G_3            
     e(  9 - 10) =    -22.29285  eV     2   --> G_4            
     e( 11 - 12) =    -22.26134  eV     2   --> G_3            
     e( 11 - 12) =    -22.26134  eV     2   --> G_4            
     e( 13 - 14) =    -22.24705  eV     2   --> G_3            
     e( 13 - 14) =    -22.24705  eV     2   --> G_4            
     e( 15 - 16) =    -22.24478  eV     2   --> G_3            
     e( 15 - 16) =    -22.24478  eV     2   --> G_4            
     e( 17 - 18) =    -22.23046  eV     2   --> G_3            
     e( 17 - 18) =    -22.23046  eV     2   --> G_4            
     e( 19 - 20) =    -22.22899  eV     2   --> G_3            
     e( 19 - 20) =    -22.22899  eV     2   --> G_4            
     e( 21 - 22) =    -14.57091  eV     2   --> G_3            
     e( 21 - 22) =    -14.57091  eV     2   --> G_4            
     e( 23 - 24) =    -13.19232  eV     2   --> G_3            
     e( 23 - 24) =    -13.19232  eV     2   --> G_4            
     e( 25 - 26) =     -7.86974  eV     2   --> G_3            
     e( 25 - 26) =     -7.86974  eV     2   --> G_4            
     e( 27 - 28) =     -6.20810  eV     2   --> G_3            
     e( 27 - 28) =     -6.20810  eV     2   --> G_4            
     e( 29 - 30) =     -4.84212  eV     2   --> G_3            
     e( 29 - 30) =     -4.84212  eV     2   --> G_4            
     e( 31 - 32) =     -4.53239  eV     2   --> G_3            
     e( 31 - 32) =     -4.53239  eV     2   --> G_4            
     e( 33 - 34) =     -4.32097  eV     2   --> G_3            
     e( 33 - 34) =     -4.32097  eV     2   --> G_4            
     e( 35 - 36) =     -3.22352  eV     2   --> G_3            
     e( 35 - 36) =     -3.22352  eV     2   --> G_4            
     e( 37 - 38) =     -2.78395  eV     2   --> G_3            
     e( 37 - 38) =     -2.78395  eV     2   --> G_4            
     e( 39 - 40) =     -1.71177  eV     2   --> G_3            
     e( 39 - 40) =     -1.71177  eV     2   --> G_4            
     e( 41 - 42) =      0.58166  eV     2   --> G_3            
     e( 41 - 42) =      0.58166  eV     2   --> G_4            
     e( 43 - 44) =      1.82790  eV     2   --> G_3            
     e( 43 - 44) =      1.82790  eV     2   --> G_4            
     e( 45 - 46) =      2.01883  eV     2   --> G_3            
     e( 45 - 46) =      2.01883  eV     2   --> G_4            
     e( 47 - 48) =      2.76790  eV     2   --> G_3            
     e( 47 - 48) =      2.76790  eV     2   --> G_4            

 **************************************************************************

 **************************************************************************

                    xk=(   0.00000,   0.07288,   0.00000  )

     Band symmetry, C_s (m)     double point group:

     e(  1 -  2) =    -22.31522  eV     2   --> G_3            
     e(  1 -  2) =    -22.31522  eV     2   --> G_4            
     e(  3 -  4) =    -22.30479  eV     2   --> G_3            
     e(  3 -  4) =    -22.30479  eV     2   --> G_4            
     e(  5 -  6) =    -22.30434  eV     2   --> G_3            
     e(  5 -  6) =    -22.30434  eV     2   --> G_4            
     e(  7 -  8) =    -22.29577  eV     2   --> G_3            
     e(  7 -  8) =    -22.29577  eV     2   --> G_4            
     e(  9 - 10) =    -22.29360  eV     2   --> G_3            
     e(  9 - 10) =    -22.29360  eV     2   --> G_4            
     e( 11 - 12) =    -22.26122  eV     2   --> G_3            
     e( 11 - 12) =    -22.26122  eV     2   --> G_4            
     e( 13 - 14) =    -22.24731  eV     2   --> G_3            
     e( 13 - 14) =    -22.24731  eV     2   --> G_4            
     e( 15 - 16) =    -22.24486  eV     2   --> G_3            
     e( 15 - 16) =    -22.24486  eV     2   --> G_4            
     e( 17 - 18) =    -22.23033  eV     2   --> G_3            
     e( 17 - 18) =    -22.23033  eV     2   --> G_4            
     e( 19 - 20) =    -22.22873  eV     2   --> G_3            
     e( 19 - 20) =    -22.22873  eV     2   --> G_4            
     e( 21 - 22) =    -14.59117  eV     2   --> G_3            
     e( 21 - 22) =    -14.59117  eV     2   --> G_4            
     e( 23 - 24) =    -13.18908  eV     2   --> G_3            
     e( 23 - 24) =    -13.18908  eV     2   --> G_4            
     e( 25 - 26) =     -7.82216  eV     2   --> G_3            
     e( 25 - 26) =     -7.82216  eV     2   --> G_4            
     e( 27 - 28) =     -6.11134  eV     2   --> G_3            
     e( 27 - 28) =     -6.11134  eV     2   --> G_4            
     e( 29 - 30) =     -4.86607  eV     2   --> G_3            
     e( 29 - 30) =     -4.86607  eV     2   --> G_4            
     e( 31 - 32) =     -4.55969  eV     2   --> G_3            
     e( 31 - 32) =     -4.55969  eV     2   --> G_4            
     e( 33 - 34) =     -4.37192  eV     2   --> G_3            
     e( 33 - 34) =     -4.37192  eV     2   --> G_4            
     e( 35 - 36) =     -3.23528  eV     2   --> G_3            
     e( 35 - 36) =     -3.23528  eV     2   --> G_4            
     e( 37 - 38) =     -2.87657  eV     2   --> G_3            
     e( 37 - 38) =     -2.87657  eV     2   --> G_4            
     e( 39 - 40) =     -1.68278  eV     2   --> G_3            
     e( 39 - 40) =     -1.68278  eV     2   --> G_4            
     e( 41 - 42) =      0.54866  eV     2   --> G_3            
     e( 41 - 42) =      0.54866  eV     2   --> G_4            
     e( 43 - 44) =      1.79397  eV     2   --> G_3            
     e( 43 - 44) =      1.79397  eV     2   --> G_4            
     e( 45 - 46) =      2.17948  eV     2   --> G_3            
     e( 45 - 46) =      2.17948  eV     2   --> G_4            
     e( 47 - 48) =      2.76570  eV     2   --> G_3            
     e( 47 - 48) =      2.76570  eV     2   --> G_4            

 **************************************************************************

 **************************************************************************

                    xk=(   0.00000,   0.04859,   0.00000  )

     Band symmetry, C_s (m)     double point group:

     e(  1 -  2) =    -22.31542  eV     2   --> G_3            
     e(  1 -  2) =    -22.31542  eV     2   --> G_4            
     e(  3 -  4) =    -22.30467  eV     2   --> G_3            
     e(  3 -  4) =    -22.30467  eV     2   --> G_4            
     e(  5 -  6) =    -22.30450  eV     2   --> G_3            
     e(  5 -  6) =    -22.30450  eV     2   --> G_4            
     e(  7 -  8) =    -22.29548  eV     2   --> G_3            
     e(  7 -  8) =    -22.29548  eV     2   --> G_4            
     e(  9 - 10) =    -22.29414  eV     2   --> G_3            
     e(  9 - 10) =    -22.29414  eV     2   --> G_4            
     e( 11 - 12) =    -22.26113  eV     2   --> G_3            
     e( 11 - 12) =    -22.26113  eV     2   --> G_4            
     e( 13 - 14) =    -22.24750  eV     2   --> G_3            
     e( 13 - 14) =    -22.24750  eV     2   --> G_4            
     e( 15 - 16) =    -22.24493  eV     2   --> G_3            
     e( 15 - 16) =    -22.24493  eV     2   --> G_4            
     e( 17 - 18) =    -22.23023  eV     2   --> G_3            
     e( 17 - 18) =    -22.23023  eV     2   --> G_4            
     e( 19 - 20) =    -22.22854  eV     2   --> G_3            
     e( 19 - 20) =    -22.22854  eV     2   --> G_4            
     e( 21 - 22) =    -14.60573  eV     2   --> G_3            
     e( 21 - 22) =    -14.60573  eV     2   --> G_4            
     e( 23 - 24) =    -13.18699  eV     2   --> G_3            
     e( 23 - 24) =    -13.18699  eV     2   --> G_4            
     e( 25 - 26) =     -7.78604  eV     2   --> G_3            
     e( 25 - 26) =     -7.78604  eV     2   --> G_4            
     e( 27 - 28) =     -6.03774  eV     2   --> G_3            
     e( 27 - 28) =     -6.03774  eV     2   --> G_4            
     e( 29 - 30) =     -4.88306  eV     2   --> G_3            
     e( 29 - 30) =     -4.88306  eV     2   --> G_4            
     e( 31 - 32) =     -4.57931  eV     2   --> G_3            
     e( 31 - 32) =     -4.57931  eV     2   --> G_4            
     e( 33 - 34) =     -4.40984  eV     2   --> G_3            
     e( 33 - 34) =     -4.40984  eV     2   --> G_4            
     e( 35 - 36) =     -3.24405  eV     2   --> G_3            
     e( 35 - 36) =     -3.24405  eV     2   --> G_4            
     e( 37 - 38) =     -2.94722  eV     2   --> G_3            
     e( 37 - 38) =     -2.94722  eV     2   --> G_4            
     e( 39 - 40) =     -1.66187  eV     2   --> G_3            
     e( 39 - 40) =     -1.66187  eV     2   --> G_4            
     e( 41 - 42) =      0.52500  eV     2   --> G_3            
     e( 41 - 42) =      0.52500  eV     2   --> G_4            
     e( 43 - 44) =      1.76606  eV     2   --> G_3            
     e( 43 - 44) =      1.76606  eV     2   --> G_4            
     e( 45 - 46) =      2.30471  eV     2   --> G_3            
     e( 45 - 46) =      2.30471  eV     2   --> G_4            
     e( 47 - 48) =      2.74529  eV     2   --> G_3            
     e( 47 - 48) =      2.74529  eV     2   --> G_4            

 **************************************************************************

 **************************************************************************

                    xk=(   0.00000,   0.02429,   0.00000  )

     Band symmetry, C_s (m)     double point group:

     e(  1 -  2) =    -22.31554  eV     2   --> G_3            
     e(  1 -  2) =    -22.31554  eV     2   --> G_4            
     e(  3 -  6) =    -22.30459  eV     4   -->   2 G_3            
     e(  3 -  6) =    -22.30459  eV     4   -->   2 G_4            
     e(  7 -  8) =    -22.29530  eV     2   --> G_3            
     e(  7 -  8) =    -22.29530  eV     2   --> G_4            
     e(  9 - 10) =    -22.29447  eV     2   --> G_3            
     e(  9 - 10) =    -22.29447  eV     2   --> G_4            
     e( 11 - 12) =    -22.26108  eV     2   --> G_3            
     e( 11 - 12) =    -22.26108  eV     2   --> G_4            
     e( 13 - 14) =    -22.24762  eV     2   --> G_3            
     e( 13 - 14) =    -22.24762  eV     2   --> G_4            
     e( 15 - 16) =    -22.24497  eV     2   --> G_3            
     e( 15 - 16) =    -22.24497  eV     2   --> G_4            
     e( 17 - 18) =    -22.23017  eV     2   --> G_3            
     e( 17 - 18) =    -22.23017  eV     2   --> G_4            
     e( 19 - 20) =    -22.22842  eV     2   --> G_3            
     e( 19 - 20) =    -22.22842  eV     2   --> G_4            
     e( 21 - 22) =    -14.61450  eV     2   --> G_3            
     e( 21 - 22) =    -14.61450  eV     2   --> G_4            
     e( 23 - 24) =    -13.18583  eV     2   --> G_3            
     e( 23 - 24) =    -13.18583  eV     2   --> G_4            
     e( 25 - 26) =     -7.76346  eV     2   --> G_3            
     e( 25 - 26) =     -7.76346  eV     2   --> G_4            
     e( 27 - 28) =     -5.99156  eV     2   --> G_3            
     e( 27 - 28) =     -5.99156  eV     2   --> G_4            
     e( 29 - 30) =     -4.89318  eV     2   --> G_3            
     e( 29 - 30) =     -4.89318  eV     2   --> G_4            
     e( 31 - 32) =     -4.59112  eV     2   --> G_3            
     e( 31 - 32) =     -4.59112  eV     2   --> G_4            
     e( 33 - 34) =     -4.43325  eV     2   --> G_3            
     e( 33 - 34) =     -4.43325  eV     2   --> G_4            
     e( 35 - 36) =     -3.24946  eV     2   --> G_3            
     e( 35 - 36) =     -3.24946  eV     2   --> G_4            
     e( 37 - 38) =     -2.99167  eV     2   --> G_3            
     e( 37 - 38) =     -2.99167  eV     2   --> G_4            
     e( 39 - 40) =     -1.64925  eV     2   --> G_3            
     e( 39 - 40) =     -1.64925  eV     2   --> G_4            
     e( 41 - 42) =      0.51077  eV     2   --> G_3            
     e( 41 - 42) =      0.51077  eV     2   --> G_4            
     e( 43 - 44) =      1.74788  eV     2   --> G_3            
     e( 43 - 44) =      1.74788  eV     2   --> G_4            
     e( 45 - 46) =      2.38467  eV     2   --> G_3            
     e( 45 - 46) =      2.38467  eV     2   --> G_4            
     e( 47 - 48) =      2.73371  eV     2   --> G_3            
     e( 47 - 48) =      2.73371  eV     2   --> G_4            

 **************************************************************************

 **************************************************************************

                    xk=(   0.00000,   0.00000,   0.00000  )

     Band symmetry, C_s (m)     double point group:

     e(  1 -  2) =    -22.31558  eV     2   --> G_3            
     e(  1 -  2) =    -22.31558  eV     2   --> G_4            
     e(  3 -  6) =    -22.30463  eV     4   -->   2 G_3            
     e(  3 -  6) =    -22.30463  eV     4   -->   2 G_4            
     e(  7 -  8) =    -22.29524  eV     2   --> G_3            
     e(  7 -  8) =    -22.29524  eV     2   --> G_4            
     e(  9 - 10) =    -22.29458  eV     2   --> G_3            
     e(  9 - 10) =    -22.29458  eV     2   --> G_4            
     e( 11 - 12) =    -22.26106  eV     2   --> G_3            
     e( 11 - 12) =    -22.26106  eV     2   --> G_4            
     e( 13 - 14) =    -22.24765  eV     2   --> G_3            
     e( 13 - 14) =    -22.24765  eV     2   --> G_4            
     e( 15 - 16) =    -22.24498  eV     2   --> G_3            
     e( 15 - 16) =    -22.24498  eV     2   --> G_4            
     e( 17 - 18) =    -22.23015  eV     2   --> G_3            
     e( 17 - 18) =    -22.23015  eV     2   --> G_4            
     e( 19 - 20) =    -22.22838  eV     2   --> G_3            
     e( 19 - 20) =    -22.22838  eV     2   --> G_4            
     e( 21 - 22) =    -14.61743  eV     2   --> G_3            
     e( 21 - 22) =    -14.61743  eV     2   --> G_4            
     e( 23 - 24) =    -13.18546  eV     2   --> G_3            
     e( 23 - 24) =    -13.18546  eV     2   --> G_4            
     e( 25 - 26) =     -7.75578  eV     2   --> G_3            
     e( 25 - 26) =     -7.75578  eV     2   --> G_4            
     e( 27 - 28) =     -5.97579  eV     2   --> G_3            
     e( 27 - 28) =     -5.97579  eV     2   --> G_4            
     e( 29 - 30) =     -4.89653  eV     2   --> G_3            
     e( 29 - 30) =     -4.89653  eV     2   --> G_4            
     e( 31 - 32) =     -4.59507  eV     2   --> G_3            
     e( 31 - 32) =     -4.59507  eV     2   --> G_4            
     e( 33 - 34) =     -4.44117  eV     2   --> G_3            
     e( 33 - 34) =     -4.44117  eV     2   --> G_4            
     e( 35 - 36) =     -3.25129  eV     2   --> G_3            
     e( 35 - 36) =     -3.25129  eV     2   --> G_4            
     e( 37 - 38) =     -3.00686  eV     2   --> G_3            
     e( 37 - 38) =     -3.00686  eV     2   --> G_4            
     e( 39 - 40) =     -1.64503  eV     2   --> G_3            
     e( 39 - 40) =     -1.64503  eV     2   --> G_4            
     e( 41 - 42) =      0.50601  eV     2   --> G_3            
     e( 41 - 42) =      0.50601  eV     2   --> G_4            
     e( 43 - 44) =      1.74158  eV     2   --> G_3            
     e( 43 - 44) =      1.74158  eV     2   --> G_4            
     e( 45 - 46) =      2.41216  eV     2   --> G_3            
     e( 45 - 46) =      2.41216  eV     2   --> G_4            
     e( 47 - 48) =      2.73009  eV     2   --> G_3            
     e( 47 - 48) =      2.73009  eV     2   --> G_4            

 **************************************************************************
 
     BANDS        :   3m17.25s CPU   5m 3.72s WALL

 
   This run was terminated on:  13:27:14  19Mar2023            

=------------------------------------------------------------------------------=
   JOB DONE.
=------------------------------------------------------------------------------=
