
     Program PWSCF v.6.8 starts on 19Mar2023 at 13: 4:55 

     This program is part of the open-source Quantum ESPRESSO suite
     for quantum simulation of materials; please cite
         "P. Giannozzi et al., J. Phys.:Condens. Matter 21 395502 (2009);
         "P. Giannozzi et al., J. Phys.:Condens. Matter 29 465901 (2017);
         "P. Giannozzi et al., J. Chem. Phys. 152 154105 (2020);
          URL http://www.quantum-espresso.org", 
     in publications or presentations arising from this work. More details at
     http://www.quantum-espresso.org/quote

     Parallel version (MPI), running on    12 processors

     MPI processes distributed on     1 nodes
     R & G space division:  proc/nbgrp/npool/nimage =      12
     240288 MiB available memory on the printing compute node when the environment starts
 
     Waiting for input...
     Reading input from standard input

     Current dimensions of program PWSCF are:
     Max number of different atomic species (ntypx) = 10
     Max number of k-points (npk) =  40000
     Max angular momentum in pseudopotentials (lmaxx) =  4

     Atomic positions and unit cell read from directory:
     ./SnS.save/
     Atomic positions from file used, from input discarded
 
     Message from routine setup:
     At least one non s.o. pseudo
     Message from routine setup:
     using ibrav=0 with symmetry is DISCOURAGED, use correct ibrav instead

     Subspace diagonalization in iterative solution of the eigenvalue problem:
     a serial algorithm will be used

 
     Parallelization info
     --------------------
     sticks:   dense  smooth     PW     G-vecs:    dense   smooth      PW
     Min         202     100     28                36422    12868    1972
     Max         204     102     29                36443    12885    1991
     Sum        2435    1213    345               437187   154555   23827
 
     Using Slab Decomposition
 


     bravais-lattice index     =            0
     lattice parameter (alat)  =       7.8666  a.u.
     unit-cell volume          =    2460.9922 (a.u.)^3
     number of atoms/cell      =            4
     number of atomic types    =            2
     number of electrons       =        40.00
     number of Kohn-Sham states=           48
     kinetic-energy cutoff     =      60.0000  Ry
     charge density cutoff     =     480.0000  Ry
     Exchange-correlation= SLA  PW   PSX  PSC
                           (   1   4  10   8   0   0   0)
     Non magnetic calculation with spin-orbit


     celldm(1)=   7.866643  celldm(2)=   0.000000  celldm(3)=   0.000000
     celldm(4)=   0.000000  celldm(5)=   0.000000  celldm(6)=   0.000000

     crystal axes: (cart. coord. in units of alat)
               a(1) = (   1.000000   0.000000   0.000000 )  
               a(2) = (   0.000000   1.029062   0.000000 )  
               a(3) = (   0.000000   0.000000   4.912473 )  

     reciprocal axes: (cart. coord. in units 2 pi/alat)
               b(1) = (  1.000000  0.000000  0.000000 )  
               b(2) = (  0.000000  0.971758  0.000000 )  
               b(3) = (  0.000000  0.000000  0.203563 )  


     PseudoPot. # 1 for S  read from file:
     ./s_pbesol_v1.4.uspp.F.UPF
     MD5 check sum: 0ccfa86ec6eb59065d10aaae963ef2a7
     Pseudo is Ultrasoft + core correction, Zval =  6.0
     Generated by new atomic code, or converted to UPF format
     Using radial grid of  907 points,  6 beta functions with: 
                l(1) =   0
                l(2) =   0
                l(3) =   1
                l(4) =   1
                l(5) =   2
                l(6) =   2
     Q(r) pseudized with  8 coefficients,  rinner =    1.300   1.300   1.300
                                                       1.300   1.300

     PseudoPot. # 2 for Sn read from file:
     ./sn_pbesol_v1.4.uspp.F.UPF
     MD5 check sum: 463fec1d5456f1e96ec1bfcad4b7b038
     Pseudo is Ultrasoft + core correction, Zval = 14.0
     Generated by new atomic code, or converted to UPF format
     Using radial grid of  891 points,  6 beta functions with: 
                l(1) =   0
                l(2) =   0
                l(3) =   1
                l(4) =   1
                l(5) =   2
                l(6) =   2
     Q(r) pseudized with  8 coefficients,  rinner =    1.350   1.350   1.350
                                                       1.350   1.350

     atomic species   valence    mass     pseudopotential
        S              6.00    32.06500     S ( 1.00)
        Sn            14.00   118.71000     Sn( 1.00)

      2 Sym. Ops. (no inversion) found ( 1 have fractional translation)


                                    s                        frac. trans.

      isym =  1     identity                                     

 cryst.   s( 1) = (     1          0          0      )
                  (     0          1          0      )
                  (     0          0          1      )

 cart.    s( 1) = (  1.0000000  0.0000000  0.0000000 )
                  (  0.0000000  1.0000000  0.0000000 )
                  (  0.0000000  0.0000000  1.0000000 )


      isym =  2     inv. 180 deg rotation - cart. axis [1,0,0]   

 cryst.   s( 2) = (    -1          0          0      )    f =(  0.5000000 )
                  (     0          1          0      )       (  0.0000000 )
                  (     0          0          1      )       (  0.0000000 )

 cart.    s( 2) = ( -1.0000000  0.0000000  0.0000000 )    f =(  0.5000000 )
                  (  0.0000000  1.0000000  0.0000000 )       (  0.0000000 )
                  (  0.0000000  0.0000000  1.0000000 )       (  0.0000000 )


   Cartesian axes

     site n.     atom                  positions (alat units)
         1           Sn  tau(   1) = (   0.2500000   0.3967143   1.7771742  )
         2           Sn  tau(   2) = (   0.7500000   0.9112460   2.4350216  )
         3           S   tau(   3) = (   0.7500000   0.9967476   1.8275158  )
         4           S   tau(   4) = (   0.2500000   0.4822170   2.3846777  )

   Crystallographic axes

     site n.     atom                  positions (cryst. coord.)
         1           Sn  tau(   1) = (  0.2500000  0.3855104  0.3617677  )
         2           Sn  tau(   2) = (  0.7500000  0.8855110  0.4956814  )
         3           S   tau(   3) = (  0.7500000  0.9685979  0.3720155  )
         4           S   tau(   4) = (  0.2500000  0.4685985  0.4854333  )

     number of k points=    50  Marzari-Vanderbilt smearing, width (Ry)=  0.0147
                       cart. coord. in units 2pi/alat
        k(    1) = (   0.0000000   0.0000000   0.0000000), wk =   0.0078125
        k(    2) = (   0.0000000   0.0000000  -0.1017817), wk =   0.0078125
        k(    3) = (   0.0000000   0.1214698   0.0000000), wk =   0.0156250
        k(    4) = (   0.0000000   0.1214698  -0.1017817), wk =   0.0156250
        k(    5) = (   0.0000000   0.2429396   0.0000000), wk =   0.0156250
        k(    6) = (   0.0000000   0.2429396  -0.1017817), wk =   0.0156250
        k(    7) = (   0.0000000   0.3644094   0.0000000), wk =   0.0156250
        k(    8) = (   0.0000000   0.3644094  -0.1017817), wk =   0.0156250
        k(    9) = (   0.0000000  -0.4858792   0.0000000), wk =   0.0078125
        k(   10) = (   0.0000000  -0.4858792  -0.1017817), wk =   0.0078125
        k(   11) = (   0.1250000   0.0000000   0.0000000), wk =   0.0156250
        k(   12) = (   0.1250000   0.0000000  -0.1017817), wk =   0.0156250
        k(   13) = (   0.1250000   0.1214698   0.0000000), wk =   0.0312500
        k(   14) = (   0.1250000   0.1214698  -0.1017817), wk =   0.0312500
        k(   15) = (   0.1250000   0.2429396   0.0000000), wk =   0.0312500
        k(   16) = (   0.1250000   0.2429396  -0.1017817), wk =   0.0312500
        k(   17) = (   0.1250000   0.3644094   0.0000000), wk =   0.0312500
        k(   18) = (   0.1250000   0.3644094  -0.1017817), wk =   0.0312500
        k(   19) = (   0.1250000  -0.4858792   0.0000000), wk =   0.0156250
        k(   20) = (   0.1250000  -0.4858792  -0.1017817), wk =   0.0156250
        k(   21) = (   0.2500000   0.0000000   0.0000000), wk =   0.0156250
        k(   22) = (   0.2500000   0.0000000  -0.1017817), wk =   0.0156250
        k(   23) = (   0.2500000   0.1214698   0.0000000), wk =   0.0312500
        k(   24) = (   0.2500000   0.1214698  -0.1017817), wk =   0.0312500
        k(   25) = (   0.2500000   0.2429396   0.0000000), wk =   0.0312500
        k(   26) = (   0.2500000   0.2429396  -0.1017817), wk =   0.0312500
        k(   27) = (   0.2500000   0.3644094   0.0000000), wk =   0.0312500
        k(   28) = (   0.2500000   0.3644094  -0.1017817), wk =   0.0312500
        k(   29) = (   0.2500000  -0.4858792   0.0000000), wk =   0.0156250
        k(   30) = (   0.2500000  -0.4858792  -0.1017817), wk =   0.0156250
        k(   31) = (   0.3750000   0.0000000   0.0000000), wk =   0.0156250
        k(   32) = (   0.3750000   0.0000000  -0.1017817), wk =   0.0156250
        k(   33) = (   0.3750000   0.1214698   0.0000000), wk =   0.0312500
        k(   34) = (   0.3750000   0.1214698  -0.1017817), wk =   0.0312500
        k(   35) = (   0.3750000   0.2429396   0.0000000), wk =   0.0312500
        k(   36) = (   0.3750000   0.2429396  -0.1017817), wk =   0.0312500
        k(   37) = (   0.3750000   0.3644094   0.0000000), wk =   0.0312500
        k(   38) = (   0.3750000   0.3644094  -0.1017817), wk =   0.0312500
        k(   39) = (   0.3750000  -0.4858792   0.0000000), wk =   0.0156250
        k(   40) = (   0.3750000  -0.4858792  -0.1017817), wk =   0.0156250
        k(   41) = (  -0.5000000   0.0000000   0.0000000), wk =   0.0078125
        k(   42) = (  -0.5000000   0.0000000  -0.1017817), wk =   0.0078125
        k(   43) = (  -0.5000000   0.1214698   0.0000000), wk =   0.0156250
        k(   44) = (  -0.5000000   0.1214698  -0.1017817), wk =   0.0156250
        k(   45) = (  -0.5000000   0.2429396   0.0000000), wk =   0.0156250
        k(   46) = (  -0.5000000   0.2429396  -0.1017817), wk =   0.0156250
        k(   47) = (  -0.5000000   0.3644094   0.0000000), wk =   0.0156250
        k(   48) = (  -0.5000000   0.3644094  -0.1017817), wk =   0.0156250
        k(   49) = (  -0.5000000  -0.4858792   0.0000000), wk =   0.0078125
        k(   50) = (  -0.5000000  -0.4858792  -0.1017817), wk =   0.0078125

                       cryst. coord.
        k(    1) = (   0.0000000   0.0000000   0.0000000), wk =   0.0078125
        k(    2) = (   0.0000000   0.0000000  -0.5000000), wk =   0.0078125
        k(    3) = (   0.0000000   0.1250000   0.0000000), wk =   0.0156250
        k(    4) = (   0.0000000   0.1250000  -0.5000000), wk =   0.0156250
        k(    5) = (   0.0000000   0.2500000   0.0000000), wk =   0.0156250
        k(    6) = (   0.0000000   0.2500000  -0.5000000), wk =   0.0156250
        k(    7) = (   0.0000000   0.3750000   0.0000000), wk =   0.0156250
        k(    8) = (   0.0000000   0.3750000  -0.5000000), wk =   0.0156250
        k(    9) = (   0.0000000  -0.5000000   0.0000000), wk =   0.0078125
        k(   10) = (   0.0000000  -0.5000000  -0.5000000), wk =   0.0078125
        k(   11) = (   0.1250000   0.0000000   0.0000000), wk =   0.0156250
        k(   12) = (   0.1250000   0.0000000  -0.5000000), wk =   0.0156250
        k(   13) = (   0.1250000   0.1250000   0.0000000), wk =   0.0312500
        k(   14) = (   0.1250000   0.1250000  -0.5000000), wk =   0.0312500
        k(   15) = (   0.1250000   0.2500000   0.0000000), wk =   0.0312500
        k(   16) = (   0.1250000   0.2500000  -0.5000000), wk =   0.0312500
        k(   17) = (   0.1250000   0.3750000   0.0000000), wk =   0.0312500
        k(   18) = (   0.1250000   0.3750000  -0.5000000), wk =   0.0312500
        k(   19) = (   0.1250000  -0.5000000   0.0000000), wk =   0.0156250
        k(   20) = (   0.1250000  -0.5000000  -0.5000000), wk =   0.0156250
        k(   21) = (   0.2500000   0.0000000   0.0000000), wk =   0.0156250
        k(   22) = (   0.2500000   0.0000000  -0.5000000), wk =   0.0156250
        k(   23) = (   0.2500000   0.1250000   0.0000000), wk =   0.0312500
        k(   24) = (   0.2500000   0.1250000  -0.5000000), wk =   0.0312500
        k(   25) = (   0.2500000   0.2500000   0.0000000), wk =   0.0312500
        k(   26) = (   0.2500000   0.2500000  -0.5000000), wk =   0.0312500
        k(   27) = (   0.2500000   0.3750000   0.0000000), wk =   0.0312500
        k(   28) = (   0.2500000   0.3750000  -0.5000000), wk =   0.0312500
        k(   29) = (   0.2500000  -0.5000000   0.0000000), wk =   0.0156250
        k(   30) = (   0.2500000  -0.5000000  -0.5000000), wk =   0.0156250
        k(   31) = (   0.3750000   0.0000000   0.0000000), wk =   0.0156250
        k(   32) = (   0.3750000   0.0000000  -0.5000000), wk =   0.0156250
        k(   33) = (   0.3750000   0.1250000   0.0000000), wk =   0.0312500
        k(   34) = (   0.3750000   0.1250000  -0.5000000), wk =   0.0312500
        k(   35) = (   0.3750000   0.2500000   0.0000000), wk =   0.0312500
        k(   36) = (   0.3750000   0.2500000  -0.5000000), wk =   0.0312500
        k(   37) = (   0.3750000   0.3750000   0.0000000), wk =   0.0312500
        k(   38) = (   0.3750000   0.3750000  -0.5000000), wk =   0.0312500
        k(   39) = (   0.3750000  -0.5000000   0.0000000), wk =   0.0156250
        k(   40) = (   0.3750000  -0.5000000  -0.5000000), wk =   0.0156250
        k(   41) = (  -0.5000000   0.0000000   0.0000000), wk =   0.0078125
        k(   42) = (  -0.5000000   0.0000000  -0.5000000), wk =   0.0078125
        k(   43) = (  -0.5000000   0.1250000   0.0000000), wk =   0.0156250
        k(   44) = (  -0.5000000   0.1250000  -0.5000000), wk =   0.0156250
        k(   45) = (  -0.5000000   0.2500000   0.0000000), wk =   0.0156250
        k(   46) = (  -0.5000000   0.2500000  -0.5000000), wk =   0.0156250
        k(   47) = (  -0.5000000   0.3750000   0.0000000), wk =   0.0156250
        k(   48) = (  -0.5000000   0.3750000  -0.5000000), wk =   0.0156250
        k(   49) = (  -0.5000000  -0.5000000   0.0000000), wk =   0.0078125
        k(   50) = (  -0.5000000  -0.5000000  -0.5000000), wk =   0.0078125

     Dense  grid:   437187 G-vectors     FFT dimensions: (  60,  60, 270)

     Smooth grid:   154555 G-vectors     FFT dimensions: (  40,  40, 192)

     Dynamical RAM for                 wfc:       2.36 MB

     Dynamical RAM for     wfc (w. buffer):       2.36 MB

     Dynamical RAM for           str. fact:       1.11 MB

     Dynamical RAM for           local pot:       0.00 MB

     Dynamical RAM for          nlocal pot:       1.77 MB

     Dynamical RAM for                qrad:       3.52 MB

     Dynamical RAM for          rho,v,vnew:      14.25 MB

     Dynamical RAM for           G-vectors:       2.18 MB

     Dynamical RAM for          h,s,v(r/c):       0.42 MB

     Dynamical RAM for          <psi|beta>:       0.11 MB

     Dynamical RAM for                 psi:       4.71 MB

     Dynamical RAM for                hpsi:       4.71 MB

     Dynamical RAM for                spsi:       4.71 MB

     Dynamical RAM for      wfcinit/wfcrot:       3.89 MB

     Dynamical RAM for           addusdens:     104.48 MB

     Estimated static dynamical RAM per process >      31.90 MB

     Estimated max dynamical RAM per process >     136.39 MB

     Estimated total dynamical RAM >       1.60 GB

     The potential is recalculated from file :
     ./SnS.save/charge-density


     negative rho (up, down):  4.854E-05 0.000E+00
     Starting wfcs are   52 randomized atomic wfcs

     Band Structure Calculation
     Davidson diagonalization with overlap

     Computing kpt #:     1  of    50
     total cpu time spent up to now is        6.4 secs

     Computing kpt #:     2  of    50
     total cpu time spent up to now is       11.4 secs

     Computing kpt #:     3  of    50
     total cpu time spent up to now is       15.9 secs

     Computing kpt #:     4  of    50
     total cpu time spent up to now is       20.3 secs

     Computing kpt #:     5  of    50
     total cpu time spent up to now is       24.5 secs

     Computing kpt #:     6  of    50
     total cpu time spent up to now is       28.7 secs

     Computing kpt #:     7  of    50
     total cpu time spent up to now is       33.2 secs

     Computing kpt #:     8  of    50
     total cpu time spent up to now is       37.7 secs

     Computing kpt #:     9  of    50
     total cpu time spent up to now is       42.2 secs

     Computing kpt #:    10  of    50
     total cpu time spent up to now is       46.6 secs

     Computing kpt #:    11  of    50
     total cpu time spent up to now is       51.2 secs

     Computing kpt #:    12  of    50
     total cpu time spent up to now is       55.6 secs

     Computing kpt #:    13  of    50
     total cpu time spent up to now is       60.1 secs

     Computing kpt #:    14  of    50
     total cpu time spent up to now is       68.1 secs

     Computing kpt #:    15  of    50
     total cpu time spent up to now is       75.9 secs

     Computing kpt #:    16  of    50
     total cpu time spent up to now is       83.6 secs

     Computing kpt #:    17  of    50
     total cpu time spent up to now is       91.4 secs

     Computing kpt #:    18  of    50
     total cpu time spent up to now is       99.3 secs

     Computing kpt #:    19  of    50
     total cpu time spent up to now is      107.5 secs

     Computing kpt #:    20  of    50
     total cpu time spent up to now is      115.4 secs

     Computing kpt #:    21  of    50
     total cpu time spent up to now is      123.2 secs

     Computing kpt #:    22  of    50
     total cpu time spent up to now is      131.0 secs

     Computing kpt #:    23  of    50
     total cpu time spent up to now is      138.8 secs

     Computing kpt #:    24  of    50
     total cpu time spent up to now is      146.6 secs

     Computing kpt #:    25  of    50
     total cpu time spent up to now is      154.8 secs

     Computing kpt #:    26  of    50
     total cpu time spent up to now is      163.1 secs

     Computing kpt #:    27  of    50
     total cpu time spent up to now is      171.9 secs

     Computing kpt #:    28  of    50
     total cpu time spent up to now is      179.9 secs

     Computing kpt #:    29  of    50
     total cpu time spent up to now is      187.8 secs

     Computing kpt #:    30  of    50
     total cpu time spent up to now is      195.7 secs

     Computing kpt #:    31  of    50
     total cpu time spent up to now is      204.2 secs

     Computing kpt #:    32  of    50
     total cpu time spent up to now is      212.9 secs

     Computing kpt #:    33  of    50
     total cpu time spent up to now is      220.6 secs

     Computing kpt #:    34  of    50
     total cpu time spent up to now is      228.4 secs

     Computing kpt #:    35  of    50
     total cpu time spent up to now is      236.3 secs

     Computing kpt #:    36  of    50
     total cpu time spent up to now is      244.0 secs

     Computing kpt #:    37  of    50
     total cpu time spent up to now is      252.4 secs

     Computing kpt #:    38  of    50
     total cpu time spent up to now is      260.8 secs

     Computing kpt #:    39  of    50
     total cpu time spent up to now is      268.6 secs

     Computing kpt #:    40  of    50
     total cpu time spent up to now is      276.4 secs

     Computing kpt #:    41  of    50
     total cpu time spent up to now is      284.3 secs

     Computing kpt #:    42  of    50
     total cpu time spent up to now is      292.4 secs

     Computing kpt #:    43  of    50
     total cpu time spent up to now is      300.6 secs

     Computing kpt #:    44  of    50
     total cpu time spent up to now is      308.7 secs

     Computing kpt #:    45  of    50
     total cpu time spent up to now is      316.6 secs

     Computing kpt #:    46  of    50
     total cpu time spent up to now is      324.4 secs

     Computing kpt #:    47  of    50
     total cpu time spent up to now is      332.0 secs

     Computing kpt #:    48  of    50
     total cpu time spent up to now is      339.6 secs

     Computing kpt #:    49  of    50
     total cpu time spent up to now is      347.3 secs

     Computing kpt #:    50  of    50
     total cpu time spent up to now is      354.8 secs

     ethr =  2.00E-12,  avg # of iterations = 72.5

     total cpu time spent up to now is      354.8 secs

     End of band structure calculation

          k = 0.0000 0.0000 0.0000 ( 19271 PWs)   bands (ev):

   -22.3156 -22.3156 -22.3046 -22.3046 -22.3046 -22.3046 -22.2952 -22.2952
   -22.2946 -22.2946 -22.2611 -22.2611 -22.2477 -22.2477 -22.2450 -22.2450
   -22.2301 -22.2301 -22.2284 -22.2284 -14.6174 -14.6174 -13.1855 -13.1855
    -7.7558  -7.7558  -5.9758  -5.9758  -4.8965  -4.8965  -4.5951  -4.5951
    -4.4412  -4.4412  -3.2513  -3.2513  -3.0069  -3.0069  -1.6450  -1.6450
     0.5060   0.5060   1.7416   1.7416   2.4122   2.4122   2.7301   2.7301

     occupation numbers 
     1.0000   1.0000   1.0000   1.0000   1.0000   1.0000   1.0000   1.0000
     1.0000   1.0000   1.0000   1.0000   1.0000   1.0000   1.0000   1.0000
     1.0000   1.0000   1.0000   1.0000   1.0000   1.0000   1.0000   1.0000
     1.0000   1.0000   1.0000   1.0000   1.0000   1.0000   1.0000   1.0000
     1.0000   1.0000   1.0000   1.0000   1.0000   1.0000   1.0000   1.0000
     0.0000   0.0000   0.0000   0.0000   0.0000   0.0000   0.0000   0.0000

          k = 0.0000 0.0000-0.1018 ( 19260 PWs)   bands (ev):

   -22.3156 -22.3156 -22.3046 -22.3046 -22.3046 -22.3046 -22.2952 -22.2952
   -22.2946 -22.2946 -22.2611 -22.2611 -22.2477 -22.2477 -22.2450 -22.2450
   -22.2301 -22.2301 -22.2284 -22.2284 -14.6174 -14.6174 -13.1855 -13.1855
    -7.7558  -7.7558  -5.9758  -5.9758  -4.8965  -4.8965  -4.5951  -4.5951
    -4.4412  -4.4412  -3.2513  -3.2513  -3.0069  -3.0069  -1.6450  -1.6450
     0.5059   0.5059   1.7416   1.7416   2.4155   2.4155   2.7655   2.7655

     occupation numbers 
     1.0000   1.0000   1.0000   1.0000   1.0000   1.0000   1.0000   1.0000
     1.0000   1.0000   1.0000   1.0000   1.0000   1.0000   1.0000   1.0000
     1.0000   1.0000   1.0000   1.0000   1.0000   1.0000   1.0000   1.0000
     1.0000   1.0000   1.0000   1.0000   1.0000   1.0000   1.0000   1.0000
     1.0000   1.0000   1.0000   1.0000   1.0000   1.0000   1.0000   1.0000
     0.0000   0.0000   0.0000   0.0000   0.0000   0.0000   0.0000   0.0000

          k = 0.0000 0.1215 0.0000 ( 19288 PWs)   bands (ev):

   -22.3146 -22.3146 -22.3052 -22.3052 -22.3039 -22.3039 -22.2967 -22.2967
   -22.2919 -22.2919 -22.2615 -22.2615 -22.2467 -22.2467 -22.2447 -22.2447
   -22.2306 -22.2306 -22.2293 -22.2293 -14.5451 -14.5451 -13.1970 -13.1970
    -7.9262  -7.9262  -6.3234  -6.3234  -4.8112  -4.8112  -4.4976  -4.4976
    -4.2588  -4.2588  -3.2093  -3.2093  -2.6739  -2.6739  -1.7484  -1.7484
     0.6238   0.6238   1.8325   1.8325   1.8625   1.8625   2.6226   2.6226

     occupation numbers 
     1.0000   1.0000   1.0000   1.0000   1.0000   1.0000   1.0000   1.0000
     1.0000   1.0000   1.0000   1.0000   1.0000   1.0000   1.0000   1.0000
     1.0000   1.0000   1.0000   1.0000   1.0000   1.0000   1.0000   1.0000
     1.0000   1.0000   1.0000   1.0000   1.0000   1.0000   1.0000   1.0000
     1.0000   1.0000   1.0000   1.0000   1.0000   1.0000   1.0000   1.0000
     0.0000   0.0000   0.0000   0.0000   0.0000   0.0000   0.0000   0.0000

          k = 0.0000 0.1215-0.1018 ( 19266 PWs)   bands (ev):

   -22.3146 -22.3146 -22.3052 -22.3052 -22.3039 -22.3039 -22.2967 -22.2967
   -22.2919 -22.2919 -22.2615 -22.2615 -22.2467 -22.2467 -22.2447 -22.2447
   -22.2306 -22.2306 -22.2293 -22.2293 -14.5451 -14.5451 -13.1970 -13.1970
    -7.9262  -7.9262  -6.3234  -6.3234  -4.8112  -4.8112  -4.4976  -4.4976
    -4.2588  -4.2588  -3.2093  -3.2093  -2.6739  -2.6739  -1.7484  -1.7484
     0.6238   0.6238   1.8326   1.8326   1.8625   1.8625   2.6226   2.6226

     occupation numbers 
     1.0000   1.0000   1.0000   1.0000   1.0000   1.0000   1.0000   1.0000
     1.0000   1.0000   1.0000   1.0000   1.0000   1.0000   1.0000   1.0000
     1.0000   1.0000   1.0000   1.0000   1.0000   1.0000   1.0000   1.0000
     1.0000   1.0000   1.0000   1.0000   1.0000   1.0000   1.0000   1.0000
     1.0000   1.0000   1.0000   1.0000   1.0000   1.0000   1.0000   1.0000
     0.0000   0.0000   0.0000   0.0000   0.0000   0.0000   0.0000   0.0000

          k = 0.0000 0.2429 0.0000 ( 19328 PWs)   bands (ev):

   -22.3118 -22.3118 -22.3066 -22.3066 -22.3027 -22.3027 -22.3002 -22.3002
   -22.2851 -22.2851 -22.2629 -22.2629 -22.2443 -22.2443 -22.2436 -22.2436
   -22.2321 -22.2321 -22.2317 -22.2317 -14.3389 -14.3389 -13.2575 -13.2575
    -8.2423  -8.2423  -7.0363  -7.0363  -4.5573  -4.5573  -4.2206  -4.2206
    -3.8522  -3.8522  -3.1312  -3.1312  -2.0126  -2.0126  -2.0004  -2.0004
     0.7655   0.7655   0.9636   0.9636   1.8011   1.8011   1.8339   1.8339

     occupation numbers 
     1.0000   1.0000   1.0000   1.0000   1.0000   1.0000   1.0000   1.0000
     1.0000   1.0000   1.0000   1.0000   1.0000   1.0000   1.0000   1.0000
     1.0000   1.0000   1.0000   1.0000   1.0000   1.0000   1.0000   1.0000
     1.0000   1.0000   1.0000   1.0000   1.0000   1.0000   1.0000   1.0000
     1.0000   1.0000   1.0000   1.0000   1.0000   1.0000   1.0000   1.0000
     0.0000   0.0000   0.0000   0.0000   0.0000   0.0000   0.0000   0.0000

          k = 0.0000 0.2429-0.1018 ( 19354 PWs)   bands (ev):

   -22.3119 -22.3119 -22.3066 -22.3066 -22.3027 -22.3027 -22.3002 -22.3002
   -22.2851 -22.2851 -22.2629 -22.2629 -22.2443 -22.2443 -22.2436 -22.2436
   -22.2321 -22.2321 -22.2318 -22.2318 -14.3389 -14.3389 -13.2575 -13.2575
    -8.2423  -8.2423  -7.0363  -7.0363  -4.5573  -4.5573  -4.2206  -4.2206
    -3.8522  -3.8522  -3.1312  -3.1312  -2.0126  -2.0126  -2.0004  -2.0004
     0.7655   0.7655   0.9635   0.9635   1.8011   1.8011   1.8339   1.8339

     occupation numbers 
     1.0000   1.0000   1.0000   1.0000   1.0000   1.0000   1.0000   1.0000
     1.0000   1.0000   1.0000   1.0000   1.0000   1.0000   1.0000   1.0000
     1.0000   1.0000   1.0000   1.0000   1.0000   1.0000   1.0000   1.0000
     1.0000   1.0000   1.0000   1.0000   1.0000   1.0000   1.0000   1.0000
     1.0000   1.0000   1.0000   1.0000   1.0000   1.0000   1.0000   1.0000
     0.0000   0.0000   0.0000   0.0000   0.0000   0.0000   0.0000   0.0000

          k = 0.0000 0.3644 0.0000 ( 19370 PWs)   bands (ev):

   -22.3082 -22.3082 -22.3075 -22.3075 -22.3041 -22.3041 -22.3026 -22.3026
   -22.2770 -22.2770 -22.2656 -22.2656 -22.2414 -22.2414 -22.2410 -22.2410
   -22.2350 -22.2350 -22.2345 -22.2345 -14.0350 -14.0350 -13.4202 -13.4202
    -8.3950  -8.3950  -7.7340  -7.7340  -4.1690  -4.1690  -3.8189  -3.8189
    -3.5486  -3.5486  -3.1560  -3.1560  -2.1703  -2.1703  -1.4883  -1.4883
    -0.0123  -0.0123   1.0833   1.0833   1.3412   1.3412   1.5666   1.5666

     occupation numbers 
     1.0000   1.0000   1.0000   1.0000   1.0000   1.0000   1.0000   1.0000
     1.0000   1.0000   1.0000   1.0000   1.0000   1.0000   1.0000   1.0000
     1.0000   1.0000   1.0000   1.0000   1.0000   1.0000   1.0000   1.0000
     1.0000   1.0000   1.0000   1.0000   1.0000   1.0000   1.0000   1.0000
     1.0000   1.0000   1.0000   1.0000   1.0000   1.0000   1.0000   1.0000
     0.0000   0.0000   0.0000   0.0000   0.0000   0.0000   0.0000   0.0000

          k = 0.0000 0.3644-0.1018 ( 19384 PWs)   bands (ev):

   -22.3082 -22.3082 -22.3075 -22.3075 -22.3041 -22.3041 -22.3026 -22.3026
   -22.2770 -22.2770 -22.2656 -22.2656 -22.2414 -22.2414 -22.2410 -22.2410
   -22.2350 -22.2350 -22.2345 -22.2345 -14.0350 -14.0350 -13.4202 -13.4202
    -8.3950  -8.3950  -7.7340  -7.7340  -4.1690  -4.1690  -3.8189  -3.8189
    -3.5486  -3.5486  -3.1560  -3.1560  -2.1703  -2.1703  -1.4883  -1.4883
    -0.0123  -0.0123   1.0833   1.0833   1.3412   1.3412   1.5666   1.5666

     occupation numbers 
     1.0000   1.0000   1.0000   1.0000   1.0000   1.0000   1.0000   1.0000
     1.0000   1.0000   1.0000   1.0000   1.0000   1.0000   1.0000   1.0000
     1.0000   1.0000   1.0000   1.0000   1.0000   1.0000   1.0000   1.0000
     1.0000   1.0000   1.0000   1.0000   1.0000   1.0000   1.0000   1.0000
     1.0000   1.0000   1.0000   1.0000   1.0000   1.0000   1.0000   1.0000
     0.0000   0.0000   0.0000   0.0000   0.0000   0.0000   0.0000   0.0000

          k = 0.0000-0.4859 0.0000 ( 19364 PWs)   bands (ev):

   -22.3069 -22.3069 -22.3066 -22.3066 -22.3048 -22.3048 -22.3045 -22.3045
   -22.2703 -22.2703 -22.2700 -22.2700 -22.2385 -22.2385 -22.2382 -22.2382
   -22.2377 -22.2377 -22.2374 -22.2374 -13.6997 -13.6997 -13.6994 -13.6994
    -8.2233  -8.2233  -8.2231  -8.2231  -3.7404  -3.7404  -3.7403  -3.7403
    -3.4081  -3.4081  -3.4078  -3.4078  -1.8043  -1.8043  -1.8041  -1.8041
     0.2971   0.2971   0.2973   0.2973   1.4214   1.4214   1.4217   1.4217

     occupation numbers 
     1.0000   1.0000   1.0000   1.0000   1.0000   1.0000   1.0000   1.0000
     1.0000   1.0000   1.0000   1.0000   1.0000   1.0000   1.0000   1.0000
     1.0000   1.0000   1.0000   1.0000   1.0000   1.0000   1.0000   1.0000
     1.0000   1.0000   1.0000   1.0000   1.0000   1.0000   1.0000   1.0000
     1.0000   1.0000   1.0000   1.0000   1.0000   1.0000   1.0000   1.0000
     0.0000   0.0000   0.0000   0.0000   0.0000   0.0000   0.0000   0.0000

          k = 0.0000-0.4859-0.1018 ( 19384 PWs)   bands (ev):

   -22.3069 -22.3069 -22.3066 -22.3066 -22.3048 -22.3048 -22.3045 -22.3045
   -22.2703 -22.2703 -22.2700 -22.2700 -22.2385 -22.2385 -22.2382 -22.2382
   -22.2377 -22.2377 -22.2374 -22.2374 -13.6997 -13.6997 -13.6994 -13.6994
    -8.2233  -8.2233  -8.2231  -8.2231  -3.7404  -3.7404  -3.7403  -3.7403
    -3.4081  -3.4081  -3.4078  -3.4078  -1.8043  -1.8043  -1.8041  -1.8041
     0.2971   0.2971   0.2973   0.2973   1.4214   1.4214   1.4217   1.4217

     occupation numbers 
     1.0000   1.0000   1.0000   1.0000   1.0000   1.0000   1.0000   1.0000
     1.0000   1.0000   1.0000   1.0000   1.0000   1.0000   1.0000   1.0000
     1.0000   1.0000   1.0000   1.0000   1.0000   1.0000   1.0000   1.0000
     1.0000   1.0000   1.0000   1.0000   1.0000   1.0000   1.0000   1.0000
     1.0000   1.0000   1.0000   1.0000   1.0000   1.0000   1.0000   1.0000
     0.0000   0.0000   0.0000   0.0000   0.0000   0.0000   0.0000   0.0000

          k = 0.1250 0.0000 0.0000 ( 19261 PWs)   bands (ev):

   -22.3133 -22.3133 -22.3061 -22.3061 -22.3026 -22.3026 -22.2992 -22.2992
   -22.2905 -22.2905 -22.2616 -22.2616 -22.2476 -22.2476 -22.2438 -22.2438
   -22.2316 -22.2316 -22.2284 -22.2284 -14.5351 -14.5351 -13.1781 -13.1781
    -7.9521  -7.9521  -6.3181  -6.3181  -4.8729  -4.8729  -4.5189  -4.5189
    -4.2850  -4.2850  -3.1117  -3.1117  -2.7702  -2.7702  -1.7210  -1.7210
     0.6127   0.6127   2.0092   2.0092   2.0564   2.0564   2.3460   2.3460

     occupation numbers 
     1.0000   1.0000   1.0000   1.0000   1.0000   1.0000   1.0000   1.0000
     1.0000   1.0000   1.0000   1.0000   1.0000   1.0000   1.0000   1.0000
     1.0000   1.0000   1.0000   1.0000   1.0000   1.0000   1.0000   1.0000
     1.0000   1.0000   1.0000   1.0000   1.0000   1.0000   1.0000   1.0000
     1.0000   1.0000   1.0000   1.0000   1.0000   1.0000   1.0000   1.0000
     0.0000   0.0000   0.0000   0.0000   0.0000   0.0000   0.0000   0.0000

          k = 0.1250 0.0000-0.1018 ( 19266 PWs)   bands (ev):

   -22.3133 -22.3133 -22.3062 -22.3062 -22.3026 -22.3026 -22.2992 -22.2992
   -22.2905 -22.2905 -22.2616 -22.2616 -22.2477 -22.2477 -22.2438 -22.2438
   -22.2316 -22.2316 -22.2284 -22.2284 -14.5351 -14.5351 -13.1781 -13.1781
    -7.9521  -7.9521  -6.3181  -6.3181  -4.8729  -4.8729  -4.5189  -4.5189
    -4.2850  -4.2850  -3.1117  -3.1117  -2.7702  -2.7702  -1.7210  -1.7210
     0.6126   0.6126   2.0092   2.0092   2.0564   2.0564   2.3474   2.3474

     occupation numbers 
     1.0000   1.0000   1.0000   1.0000   1.0000   1.0000   1.0000   1.0000
     1.0000   1.0000   1.0000   1.0000   1.0000   1.0000   1.0000   1.0000
     1.0000   1.0000   1.0000   1.0000   1.0000   1.0000   1.0000   1.0000
     1.0000   1.0000   1.0000   1.0000   1.0000   1.0000   1.0000   1.0000
     1.0000   1.0000   1.0000   1.0000   1.0000   1.0000   1.0000   1.0000
     0.0000   0.0000   0.0000   0.0000   0.0000   0.0000   0.0000   0.0000

          k = 0.1250 0.1215 0.0000 ( 19310 PWs)   bands (ev):

   -22.3126 -22.3126 -22.3070 -22.3070 -22.3018 -22.3018 -22.2999 -22.2999
   -22.2885 -22.2885 -22.2620 -22.2620 -22.2474 -22.2474 -22.2430 -22.2430
   -22.2325 -22.2325 -22.2288 -22.2288 -14.4642 -14.4642 -13.1875 -13.1875
    -8.0391  -8.0391  -6.5422  -6.5422  -4.8605  -4.8605  -4.7791  -4.7791
    -3.7643  -3.7643  -3.4016  -3.4016  -2.3256  -2.3256  -1.7810  -1.7810
     0.7349   0.7349   1.3666   1.3666   2.0060   2.0060   2.5989   2.5989

     occupation numbers 
     1.0000   1.0000   1.0000   1.0000   1.0000   1.0000   1.0000   1.0000
     1.0000   1.0000   1.0000   1.0000   1.0000   1.0000   1.0000   1.0000
     1.0000   1.0000   1.0000   1.0000   1.0000   1.0000   1.0000   1.0000
     1.0000   1.0000   1.0000   1.0000   1.0000   1.0000   1.0000   1.0000
     1.0000   1.0000   1.0000   1.0000   1.0000   1.0000   1.0000   1.0000
     0.0000   0.0000   0.0000   0.0000   0.0000   0.0000   0.0000   0.0000

          k = 0.1250 0.1215-0.1018 ( 19284 PWs)   bands (ev):

   -22.3126 -22.3126 -22.3070 -22.3070 -22.3018 -22.3018 -22.2999 -22.2999
   -22.2885 -22.2885 -22.2620 -22.2620 -22.2474 -22.2474 -22.2430 -22.2430
   -22.2325 -22.2325 -22.2288 -22.2288 -14.4642 -14.4642 -13.1875 -13.1875
    -8.0391  -8.0391  -6.5422  -6.5422  -4.8605  -4.8605  -4.7791  -4.7791
    -3.7643  -3.7643  -3.4016  -3.4016  -2.3256  -2.3256  -1.7810  -1.7810
     0.7349   0.7349   1.3666   1.3666   2.0060   2.0060   2.6005   2.6005

     occupation numbers 
     1.0000   1.0000   1.0000   1.0000   1.0000   1.0000   1.0000   1.0000
     1.0000   1.0000   1.0000   1.0000   1.0000   1.0000   1.0000   1.0000
     1.0000   1.0000   1.0000   1.0000   1.0000   1.0000   1.0000   1.0000
     1.0000   1.0000   1.0000   1.0000   1.0000   1.0000   1.0000   1.0000
     1.0000   1.0000   1.0000   1.0000   1.0000   1.0000   1.0000   1.0000
     0.0000   0.0000   0.0000   0.0000   0.0000   0.0000   0.0000   0.0000

          k = 0.1250 0.2429 0.0000 ( 19330 PWs)   bands (ev):

   -22.3110 -22.3110 -22.3089 -22.3089 -22.3018 -22.3018 -22.3003 -22.3003
   -22.2828 -22.2828 -22.2633 -22.2633 -22.2463 -22.2463 -22.2408 -22.2408
   -22.2348 -22.2348 -22.2300 -22.2300 -14.2632 -14.2632 -13.2404 -13.2404
    -8.2275  -8.2275  -7.0881  -7.0881  -4.9336  -4.9336  -4.5197  -4.5197
    -3.5492  -3.5492  -3.2682  -3.2682  -1.9796  -1.9796  -1.8918  -1.8918
     0.7616   0.7616   1.0628   1.0628   1.4106   1.4106   2.2374   2.2374

     occupation numbers 
     1.0000   1.0000   1.0000   1.0000   1.0000   1.0000   1.0000   1.0000
     1.0000   1.0000   1.0000   1.0000   1.0000   1.0000   1.0000   1.0000
     1.0000   1.0000   1.0000   1.0000   1.0000   1.0000   1.0000   1.0000
     1.0000   1.0000   1.0000   1.0000   1.0000   1.0000   1.0000   1.0000
     1.0000   1.0000   1.0000   1.0000   1.0000   1.0000   1.0000   1.0000
     0.0000   0.0000   0.0000   0.0000   0.0000   0.0000   0.0000   0.0000

          k = 0.1250 0.2429-0.1018 ( 19330 PWs)   bands (ev):

   -22.3110 -22.3110 -22.3089 -22.3089 -22.3017 -22.3017 -22.3003 -22.3003
   -22.2828 -22.2828 -22.2633 -22.2633 -22.2463 -22.2463 -22.2408 -22.2408
   -22.2348 -22.2348 -22.2300 -22.2300 -14.2632 -14.2632 -13.2404 -13.2404
    -8.2275  -8.2275  -7.0881  -7.0881  -4.9336  -4.9336  -4.5197  -4.5197
    -3.5492  -3.5492  -3.2682  -3.2682  -1.9796  -1.9796  -1.8918  -1.8918
     0.7616   0.7616   1.0628   1.0628   1.4105   1.4105   2.2375   2.2375

     occupation numbers 
     1.0000   1.0000   1.0000   1.0000   1.0000   1.0000   1.0000   1.0000
     1.0000   1.0000   1.0000   1.0000   1.0000   1.0000   1.0000   1.0000
     1.0000   1.0000   1.0000   1.0000   1.0000   1.0000   1.0000   1.0000
     1.0000   1.0000   1.0000   1.0000   1.0000   1.0000   1.0000   1.0000
     1.0000   1.0000   1.0000   1.0000   1.0000   1.0000   1.0000   1.0000
     0.0000   0.0000   0.0000   0.0000   0.0000   0.0000   0.0000   0.0000

          k = 0.1250 0.3644 0.0000 ( 19363 PWs)   bands (ev):

   -22.3107 -22.3107 -22.3105 -22.3105 -22.3024 -22.3024 -22.2997 -22.2997
   -22.2756 -22.2756 -22.2657 -22.2657 -22.2442 -22.2442 -22.2380 -22.2380
   -22.2377 -22.2377 -22.2321 -22.2321 -13.9693 -13.9693 -13.3885 -13.3885
    -8.3174  -8.3174  -7.6931  -7.6931  -4.6603  -4.6603  -4.1602  -4.1602
    -3.6724  -3.6724  -3.2369  -3.2369  -1.9521  -1.9521  -1.8479  -1.8479
     0.5973   0.5973   0.6104   0.6104   1.6139   1.6139   1.7911   1.7911

     occupation numbers 
     1.0000   1.0000   1.0000   1.0000   1.0000   1.0000   1.0000   1.0000
     1.0000   1.0000   1.0000   1.0000   1.0000   1.0000   1.0000   1.0000
     1.0000   1.0000   1.0000   1.0000   1.0000   1.0000   1.0000   1.0000
     1.0000   1.0000   1.0000   1.0000   1.0000   1.0000   1.0000   1.0000
     1.0000   1.0000   1.0000   1.0000   1.0000   1.0000   1.0000   1.0000
     0.0000   0.0000   0.0000   0.0000   0.0000   0.0000   0.0000   0.0000

          k = 0.1250 0.3644-0.1018 ( 19360 PWs)   bands (ev):

   -22.3107 -22.3107 -22.3105 -22.3105 -22.3024 -22.3024 -22.2997 -22.2997
   -22.2756 -22.2756 -22.2657 -22.2657 -22.2442 -22.2442 -22.2380 -22.2380
   -22.2377 -22.2377 -22.2321 -22.2321 -13.9693 -13.9693 -13.3885 -13.3885
    -8.3174  -8.3174  -7.6931  -7.6931  -4.6603  -4.6603  -4.1602  -4.1602
    -3.6724  -3.6724  -3.2369  -3.2369  -1.9521  -1.9521  -1.8479  -1.8479
     0.5973   0.5973   0.6104   0.6104   1.6139   1.6139   1.7911   1.7911

     occupation numbers 
     1.0000   1.0000   1.0000   1.0000   1.0000   1.0000   1.0000   1.0000
     1.0000   1.0000   1.0000   1.0000   1.0000   1.0000   1.0000   1.0000
     1.0000   1.0000   1.0000   1.0000   1.0000   1.0000   1.0000   1.0000
     1.0000   1.0000   1.0000   1.0000   1.0000   1.0000   1.0000   1.0000
     1.0000   1.0000   1.0000   1.0000   1.0000   1.0000   1.0000   1.0000
     0.0000   0.0000   0.0000   0.0000   0.0000   0.0000   0.0000   0.0000

          k = 0.1250-0.4859 0.0000 ( 19352 PWs)   bands (ev):

   -22.3113 -22.3113 -22.3110 -22.3110 -22.3010 -22.3010 -22.3007 -22.3007
   -22.2698 -22.2698 -22.2695 -22.2695 -22.2412 -22.2412 -22.2411 -22.2411
   -22.2348 -22.2348 -22.2348 -22.2348 -13.6496 -13.6496 -13.6493 -13.6493
    -8.1426  -8.1426  -8.1424  -8.1424  -4.2108  -4.2108  -4.2106  -4.2106
    -3.5831  -3.5831  -3.5830  -3.5830  -1.8470  -1.8470  -1.8468  -1.8468
     0.3977   0.3977   0.3978   0.3978   1.9294   1.9294   1.9295   1.9295

     occupation numbers 
     1.0000   1.0000   1.0000   1.0000   1.0000   1.0000   1.0000   1.0000
     1.0000   1.0000   1.0000   1.0000   1.0000   1.0000   1.0000   1.0000
     1.0000   1.0000   1.0000   1.0000   1.0000   1.0000   1.0000   1.0000
     1.0000   1.0000   1.0000   1.0000   1.0000   1.0000   1.0000   1.0000
     1.0000   1.0000   1.0000   1.0000   1.0000   1.0000   1.0000   1.0000
     0.0000   0.0000   0.0000   0.0000   0.0000   0.0000   0.0000   0.0000

          k = 0.1250-0.4859-0.1018 ( 19356 PWs)   bands (ev):

   -22.3113 -22.3113 -22.3110 -22.3110 -22.3010 -22.3010 -22.3007 -22.3007
   -22.2698 -22.2698 -22.2695 -22.2695 -22.2412 -22.2412 -22.2411 -22.2411
   -22.2348 -22.2348 -22.2348 -22.2348 -13.6496 -13.6496 -13.6493 -13.6493
    -8.1426  -8.1426  -8.1424  -8.1424  -4.2108  -4.2108  -4.2106  -4.2106
    -3.5831  -3.5831  -3.5830  -3.5830  -1.8470  -1.8470  -1.8468  -1.8468
     0.3977   0.3977   0.3978   0.3978   1.9294   1.9294   1.9295   1.9295

     occupation numbers 
     1.0000   1.0000   1.0000   1.0000   1.0000   1.0000   1.0000   1.0000
     1.0000   1.0000   1.0000   1.0000   1.0000   1.0000   1.0000   1.0000
     1.0000   1.0000   1.0000   1.0000   1.0000   1.0000   1.0000   1.0000
     1.0000   1.0000   1.0000   1.0000   1.0000   1.0000   1.0000   1.0000
     1.0000   1.0000   1.0000   1.0000   1.0000   1.0000   1.0000   1.0000
     0.0000   0.0000   0.0000   0.0000   0.0000   0.0000   0.0000   0.0000

          k = 0.2500 0.0000 0.0000 ( 19271 PWs)   bands (ev):

   -22.3100 -22.3100 -22.3096 -22.3096 -22.3016 -22.3016 -22.2985 -22.2985
   -22.2850 -22.2850 -22.2633 -22.2633 -22.2473 -22.2473 -22.2406 -22.2406
   -22.2353 -22.2353 -22.2287 -22.2287 -14.3009 -14.3009 -13.1922 -13.1922
    -8.3366  -8.3366  -7.0804  -7.0804  -4.6601  -4.6601  -4.2809  -4.2809
    -3.9209  -3.9209  -3.0132  -3.0132  -2.1550  -2.1550  -1.9429  -1.9429
     0.9264   0.9264   0.9390   0.9390   1.7693   1.7693   2.1203   2.1203

     occupation numbers 
     1.0000   1.0000   1.0000   1.0000   1.0000   1.0000   1.0000   1.0000
     1.0000   1.0000   1.0000   1.0000   1.0000   1.0000   1.0000   1.0000
     1.0000   1.0000   1.0000   1.0000   1.0000   1.0000   1.0000   1.0000
     1.0000   1.0000   1.0000   1.0000   1.0000   1.0000   1.0000   1.0000
     1.0000   1.0000   1.0000   1.0000   1.0000   1.0000   1.0000   1.0000
     0.0000   0.0000   0.0000   0.0000   0.0000   0.0000   0.0000   0.0000

          k = 0.2500 0.0000-0.1018 ( 19272 PWs)   bands (ev):

   -22.3100 -22.3100 -22.3096 -22.3096 -22.3016 -22.3016 -22.2985 -22.2985
   -22.2850 -22.2850 -22.2633 -22.2633 -22.2473 -22.2473 -22.2406 -22.2406
   -22.2353 -22.2353 -22.2287 -22.2287 -14.3009 -14.3009 -13.1922 -13.1922
    -8.3366  -8.3366  -7.0804  -7.0804  -4.6601  -4.6601  -4.2809  -4.2809
    -3.9209  -3.9209  -3.0132  -3.0132  -2.1550  -2.1550  -1.9429  -1.9429
     0.9264   0.9264   0.9389   0.9389   1.7693   1.7693   2.1203   2.1203

     occupation numbers 
     1.0000   1.0000   1.0000   1.0000   1.0000   1.0000   1.0000   1.0000
     1.0000   1.0000   1.0000   1.0000   1.0000   1.0000   1.0000   1.0000
     1.0000   1.0000   1.0000   1.0000   1.0000   1.0000   1.0000   1.0000
     1.0000   1.0000   1.0000   1.0000   1.0000   1.0000   1.0000   1.0000
     1.0000   1.0000   1.0000   1.0000   1.0000   1.0000   1.0000   1.0000
     0.0000   0.0000   0.0000   0.0000   0.0000   0.0000   0.0000   0.0000

          k = 0.2500 0.1215 0.0000 ( 19294 PWs)   bands (ev):

   -22.3111 -22.3111 -22.3109 -22.3109 -22.3010 -22.3010 -22.2974 -22.2974
   -22.2831 -22.2831 -22.2636 -22.2636 -22.2475 -22.2475 -22.2395 -22.2395
   -22.2362 -22.2362 -22.2287 -22.2287 -14.2353 -14.2353 -13.1936 -13.1936
    -8.3011  -8.3011  -7.1285  -7.1285  -4.9484  -4.9484  -4.6064  -4.6064
    -3.4250  -3.4250  -3.3248  -3.3248  -2.1132  -2.1132  -1.8606  -1.8606
     0.8425   0.8425   1.0116   1.0116   1.5578   1.5578   2.2251   2.2251

     occupation numbers 
     1.0000   1.0000   1.0000   1.0000   1.0000   1.0000   1.0000   1.0000
     1.0000   1.0000   1.0000   1.0000   1.0000   1.0000   1.0000   1.0000
     1.0000   1.0000   1.0000   1.0000   1.0000   1.0000   1.0000   1.0000
     1.0000   1.0000   1.0000   1.0000   1.0000   1.0000   1.0000   1.0000
     1.0000   1.0000   1.0000   1.0000   1.0000   1.0000   1.0000   1.0000
     0.0000   0.0000   0.0000   0.0000   0.0000   0.0000   0.0000   0.0000

          k = 0.2500 0.1215-0.1018 ( 19314 PWs)   bands (ev):

   -22.3111 -22.3111 -22.3109 -22.3109 -22.3010 -22.3010 -22.2974 -22.2974
   -22.2831 -22.2831 -22.2636 -22.2636 -22.2475 -22.2475 -22.2395 -22.2395
   -22.2362 -22.2362 -22.2287 -22.2287 -14.2353 -14.2353 -13.1936 -13.1936
    -8.3011  -8.3011  -7.1285  -7.1285  -4.9484  -4.9484  -4.6064  -4.6064
    -3.4250  -3.4250  -3.3248  -3.3248  -2.1132  -2.1132  -1.8606  -1.8606
     0.8425   0.8425   1.0116   1.0116   1.5578   1.5578   2.2252   2.2252

     occupation numbers 
     1.0000   1.0000   1.0000   1.0000   1.0000   1.0000   1.0000   1.0000
     1.0000   1.0000   1.0000   1.0000   1.0000   1.0000   1.0000   1.0000
     1.0000   1.0000   1.0000   1.0000   1.0000   1.0000   1.0000   1.0000
     1.0000   1.0000   1.0000   1.0000   1.0000   1.0000   1.0000   1.0000
     1.0000   1.0000   1.0000   1.0000   1.0000   1.0000   1.0000   1.0000
     0.0000   0.0000   0.0000   0.0000   0.0000   0.0000   0.0000   0.0000

          k = 0.2500 0.2429 0.0000 ( 19308 PWs)   bands (ev):

   -22.3142 -22.3142 -22.3139 -22.3139 -22.2990 -22.2990 -22.2953 -22.2953
   -22.2784 -22.2784 -22.2646 -22.2646 -22.2473 -22.2473 -22.2384 -22.2384
   -22.2372 -22.2372 -22.2291 -22.2291 -14.0518 -14.0518 -13.2199 -13.2199
    -8.2215  -8.2215  -7.3106  -7.3106  -5.4713  -5.4713  -4.4655  -4.4655
    -3.9260  -3.9260  -3.0822  -3.0822  -2.5415  -2.5415  -1.7073  -1.7073
     0.6500   0.6500   1.3833   1.3833   1.5791   1.5791   2.6759   2.6759

     occupation numbers 
     1.0000   1.0000   1.0000   1.0000   1.0000   1.0000   1.0000   1.0000
     1.0000   1.0000   1.0000   1.0000   1.0000   1.0000   1.0000   1.0000
     1.0000   1.0000   1.0000   1.0000   1.0000   1.0000   1.0000   1.0000
     1.0000   1.0000   1.0000   1.0000   1.0000   1.0000   1.0000   1.0000
     1.0000   1.0000   1.0000   1.0000   1.0000   1.0000   1.0000   1.0000
     0.0000   0.0000   0.0000   0.0000   0.0000   0.0000   0.0000   0.0000

          k = 0.2500 0.2429-0.1018 ( 19314 PWs)   bands (ev):

   -22.3142 -22.3142 -22.3139 -22.3139 -22.2990 -22.2990 -22.2953 -22.2953
   -22.2784 -22.2784 -22.2646 -22.2646 -22.2473 -22.2473 -22.2384 -22.2384
   -22.2372 -22.2372 -22.2291 -22.2291 -14.0518 -14.0518 -13.2199 -13.2199
    -8.2215  -8.2215  -7.3106  -7.3106  -5.4713  -5.4713  -4.4655  -4.4655
    -3.9260  -3.9260  -3.0822  -3.0822  -2.5415  -2.5415  -1.7073  -1.7073
     0.6500   0.6500   1.3833   1.3833   1.5791   1.5791   2.6760   2.6760

     occupation numbers 
     1.0000   1.0000   1.0000   1.0000   1.0000   1.0000   1.0000   1.0000
     1.0000   1.0000   1.0000   1.0000   1.0000   1.0000   1.0000   1.0000
     1.0000   1.0000   1.0000   1.0000   1.0000   1.0000   1.0000   1.0000
     1.0000   1.0000   1.0000   1.0000   1.0000   1.0000   1.0000   1.0000
     1.0000   1.0000   1.0000   1.0000   1.0000   1.0000   1.0000   1.0000
     0.0000   0.0000   0.0000   0.0000   0.0000   0.0000   0.0000   0.0000

          k = 0.2500 0.3644 0.0000 ( 19323 PWs)   bands (ev):

   -22.3173 -22.3173 -22.3170 -22.3170 -22.2966 -22.2966 -22.2941 -22.2941
   -22.2730 -22.2730 -22.2662 -22.2662 -22.2459 -22.2459 -22.2409 -22.2409
   -22.2345 -22.2345 -22.2302 -22.2302 -13.7914 -13.7914 -13.3202 -13.3202
    -8.1213  -8.1213  -7.6254  -7.6254  -5.5115  -5.5115  -4.5375  -4.5375
    -4.0951  -4.0951  -3.3009  -3.3009  -2.8034  -2.8034  -2.0000  -2.0000
     0.7424   0.7424   1.9537   1.9537   2.0799   2.0799   2.3974   2.3974

     occupation numbers 
     1.0000   1.0000   1.0000   1.0000   1.0000   1.0000   1.0000   1.0000
     1.0000   1.0000   1.0000   1.0000   1.0000   1.0000   1.0000   1.0000
     1.0000   1.0000   1.0000   1.0000   1.0000   1.0000   1.0000   1.0000
     1.0000   1.0000   1.0000   1.0000   1.0000   1.0000   1.0000   1.0000
     1.0000   1.0000   1.0000   1.0000   1.0000   1.0000   1.0000   1.0000
     0.0000   0.0000   0.0000   0.0000   0.0000   0.0000   0.0000   0.0000

          k = 0.2500 0.3644-0.1018 ( 19326 PWs)   bands (ev):

   -22.3173 -22.3173 -22.3170 -22.3170 -22.2966 -22.2966 -22.2941 -22.2941
   -22.2730 -22.2730 -22.2662 -22.2662 -22.2459 -22.2459 -22.2409 -22.2409
   -22.2345 -22.2345 -22.2302 -22.2302 -13.7914 -13.7914 -13.3202 -13.3202
    -8.1213  -8.1213  -7.6254  -7.6254  -5.5115  -5.5115  -4.5375  -4.5375
    -4.0951  -4.0951  -3.3009  -3.3009  -2.8034  -2.8034  -2.0000  -2.0000
     0.7424   0.7424   1.9537   1.9537   2.0799   2.0799   2.3974   2.3974

     occupation numbers 
     1.0000   1.0000   1.0000   1.0000   1.0000   1.0000   1.0000   1.0000
     1.0000   1.0000   1.0000   1.0000   1.0000   1.0000   1.0000   1.0000
     1.0000   1.0000   1.0000   1.0000   1.0000   1.0000   1.0000   1.0000
     1.0000   1.0000   1.0000   1.0000   1.0000   1.0000   1.0000   1.0000
     1.0000   1.0000   1.0000   1.0000   1.0000   1.0000   1.0000   1.0000
     0.0000   0.0000   0.0000   0.0000   0.0000   0.0000   0.0000   0.0000

          k = 0.2500-0.4859 0.0000 ( 19348 PWs)   bands (ev):

   -22.3186 -22.3186 -22.3183 -22.3183 -22.2948 -22.2948 -22.2945 -22.2945
   -22.2690 -22.2690 -22.2687 -22.2687 -22.2435 -22.2435 -22.2435 -22.2435
   -22.2321 -22.2321 -22.2321 -22.2321 -13.5226 -13.5226 -13.5223 -13.5223
    -7.9340  -7.9340  -7.9338  -7.9338  -5.1135  -5.1135  -5.1133  -5.1133
    -3.7179  -3.7179  -3.7178  -3.7178  -2.5244  -2.5244  -2.5242  -2.5242
     1.3588   1.3588   1.3589   1.3589   2.4725   2.4725   2.4725   2.4725

     occupation numbers 
     1.0000   1.0000   1.0000   1.0000   1.0000   1.0000   1.0000   1.0000
     1.0000   1.0000   1.0000   1.0000   1.0000   1.0000   1.0000   1.0000
     1.0000   1.0000   1.0000   1.0000   1.0000   1.0000   1.0000   1.0000
     1.0000   1.0000   1.0000   1.0000   1.0000   1.0000   1.0000   1.0000
     1.0000   1.0000   1.0000   1.0000   1.0000   1.0000   1.0000   1.0000
     0.0000   0.0000   0.0000   0.0000   0.0000   0.0000   0.0000   0.0000

          k = 0.2500-0.4859-0.1018 ( 19324 PWs)   bands (ev):

   -22.3186 -22.3186 -22.3183 -22.3183 -22.2948 -22.2948 -22.2945 -22.2945
   -22.2690 -22.2690 -22.2687 -22.2687 -22.2435 -22.2435 -22.2435 -22.2435
   -22.2321 -22.2321 -22.2321 -22.2321 -13.5226 -13.5226 -13.5223 -13.5223
    -7.9340  -7.9340  -7.9338  -7.9338  -5.1135  -5.1135  -5.1133  -5.1133
    -3.7179  -3.7179  -3.7178  -3.7178  -2.5244  -2.5244  -2.5242  -2.5242
     1.3588   1.3588   1.3589   1.3589   2.4725   2.4725   2.4725   2.4725

     occupation numbers 
     1.0000   1.0000   1.0000   1.0000   1.0000   1.0000   1.0000   1.0000
     1.0000   1.0000   1.0000   1.0000   1.0000   1.0000   1.0000   1.0000
     1.0000   1.0000   1.0000   1.0000   1.0000   1.0000   1.0000   1.0000
     1.0000   1.0000   1.0000   1.0000   1.0000   1.0000   1.0000   1.0000
     1.0000   1.0000   1.0000   1.0000   1.0000   1.0000   1.0000   1.0000
     0.0000   0.0000   0.0000   0.0000   0.0000   0.0000   0.0000   0.0000

          k = 0.3750 0.0000 0.0000 ( 19284 PWs)   bands (ev):

   -22.3129 -22.3129 -22.3121 -22.3121 -22.2980 -22.2980 -22.2952 -22.2952
   -22.2783 -22.2783 -22.2666 -22.2666 -22.2460 -22.2460 -22.2397 -22.2397
   -22.2362 -22.2362 -22.2298 -22.2298 -13.9582 -13.9582 -13.3140 -13.3140
    -8.5526  -8.5526  -7.8503  -7.8503  -4.2903  -4.2903  -3.9674  -3.9674
    -3.5394  -3.5394  -3.0466  -3.0466  -2.1242  -2.1242  -1.6611  -1.6611
     0.1251   0.1251   1.3029   1.3029   1.3234   1.3234   1.4716   1.4716

     occupation numbers 
     1.0000   1.0000   1.0000   1.0000   1.0000   1.0000   1.0000   1.0000
     1.0000   1.0000   1.0000   1.0000   1.0000   1.0000   1.0000   1.0000
     1.0000   1.0000   1.0000   1.0000   1.0000   1.0000   1.0000   1.0000
     1.0000   1.0000   1.0000   1.0000   1.0000   1.0000   1.0000   1.0000
     1.0000   1.0000   1.0000   1.0000   1.0000   1.0000   1.0000   1.0000
     0.0000   0.0000   0.0000   0.0000   0.0000   0.0000   0.0000   0.0000

          k = 0.3750 0.0000-0.1018 ( 19288 PWs)   bands (ev):

   -22.3130 -22.3130 -22.3121 -22.3121 -22.2980 -22.2980 -22.2952 -22.2952
   -22.2783 -22.2783 -22.2666 -22.2666 -22.2460 -22.2460 -22.2397 -22.2397
   -22.2362 -22.2362 -22.2298 -22.2298 -13.9582 -13.9582 -13.3140 -13.3140
    -8.5526  -8.5526  -7.8503  -7.8503  -4.2903  -4.2903  -3.9674  -3.9674
    -3.5394  -3.5394  -3.0466  -3.0466  -2.1242  -2.1242  -1.6611  -1.6611
     0.1251   0.1251   1.3029   1.3029   1.3234   1.3234   1.4716   1.4716

     occupation numbers 
     1.0000   1.0000   1.0000   1.0000   1.0000   1.0000   1.0000   1.0000
     1.0000   1.0000   1.0000   1.0000   1.0000   1.0000   1.0000   1.0000
     1.0000   1.0000   1.0000   1.0000   1.0000   1.0000   1.0000   1.0000
     1.0000   1.0000   1.0000   1.0000   1.0000   1.0000   1.0000   1.0000
     1.0000   1.0000   1.0000   1.0000   1.0000   1.0000   1.0000   1.0000
     0.0000   0.0000   0.0000   0.0000   0.0000   0.0000   0.0000   0.0000

          k = 0.3750 0.1215 0.0000 ( 19309 PWs)   bands (ev):

   -22.3148 -22.3148 -22.3142 -22.3142 -22.2966 -22.2966 -22.2939 -22.2939
   -22.2771 -22.2771 -22.2667 -22.2667 -22.2464 -22.2464 -22.2403 -22.2403
   -22.2354 -22.2354 -22.2295 -22.2295 -13.9036 -13.9036 -13.2990 -13.2990
    -8.4645  -8.4645  -7.8068  -7.8068  -4.6648  -4.6648  -4.2975  -4.2975
    -3.4396  -3.4396  -3.2774  -3.2774  -2.1865  -2.1865  -1.8885  -1.8885
     0.6454   0.6454   0.7298   0.7298   1.6565   1.6565   1.7621   1.7621

     occupation numbers 
     1.0000   1.0000   1.0000   1.0000   1.0000   1.0000   1.0000   1.0000
     1.0000   1.0000   1.0000   1.0000   1.0000   1.0000   1.0000   1.0000
     1.0000   1.0000   1.0000   1.0000   1.0000   1.0000   1.0000   1.0000
     1.0000   1.0000   1.0000   1.0000   1.0000   1.0000   1.0000   1.0000
     1.0000   1.0000   1.0000   1.0000   1.0000   1.0000   1.0000   1.0000
     0.0000   0.0000   0.0000   0.0000   0.0000   0.0000   0.0000   0.0000

          k = 0.3750 0.1215-0.1018 ( 19308 PWs)   bands (ev):

   -22.3148 -22.3148 -22.3142 -22.3142 -22.2966 -22.2966 -22.2939 -22.2939
   -22.2771 -22.2771 -22.2667 -22.2667 -22.2464 -22.2464 -22.2403 -22.2403
   -22.2354 -22.2354 -22.2295 -22.2295 -13.9036 -13.9036 -13.2990 -13.2990
    -8.4645  -8.4645  -7.8068  -7.8068  -4.6648  -4.6648  -4.2975  -4.2975
    -3.4396  -3.4396  -3.2774  -3.2774  -2.1865  -2.1865  -1.8885  -1.8885
     0.6454   0.6454   0.7298   0.7298   1.6565   1.6565   1.7621   1.7621

     occupation numbers 
     1.0000   1.0000   1.0000   1.0000   1.0000   1.0000   1.0000   1.0000
     1.0000   1.0000   1.0000   1.0000   1.0000   1.0000   1.0000   1.0000
     1.0000   1.0000   1.0000   1.0000   1.0000   1.0000   1.0000   1.0000
     1.0000   1.0000   1.0000   1.0000   1.0000   1.0000   1.0000   1.0000
     1.0000   1.0000   1.0000   1.0000   1.0000   1.0000   1.0000   1.0000
     0.0000   0.0000   0.0000   0.0000   0.0000   0.0000   0.0000   0.0000

          k = 0.3750 0.2429 0.0000 ( 19312 PWs)   bands (ev):

   -22.3192 -22.3192 -22.3189 -22.3189 -22.2935 -22.2935 -22.2912 -22.2912
   -22.2742 -22.2742 -22.2671 -22.2671 -22.2466 -22.2466 -22.2416 -22.2416
   -22.2335 -22.2335 -22.2292 -22.2292 -13.7555 -13.7555 -13.2738 -13.2738
    -8.2238  -8.2238  -7.7121  -7.7121  -5.4538  -5.4538  -4.4136  -4.4136
    -4.1335  -4.1335  -3.3411  -3.3411  -2.9089  -2.9089  -2.0261  -2.0261
     0.7250   0.7250   1.9350   1.9350   2.1018   2.1018   2.3872   2.3872

     occupation numbers 
     1.0000   1.0000   1.0000   1.0000   1.0000   1.0000   1.0000   1.0000
     1.0000   1.0000   1.0000   1.0000   1.0000   1.0000   1.0000   1.0000
     1.0000   1.0000   1.0000   1.0000   1.0000   1.0000   1.0000   1.0000
     1.0000   1.0000   1.0000   1.0000   1.0000   1.0000   1.0000   1.0000
     1.0000   1.0000   1.0000   1.0000   1.0000   1.0000   1.0000   1.0000
     0.0000   0.0000   0.0000   0.0000   0.0000   0.0000   0.0000   0.0000

          k = 0.3750 0.2429-0.1018 ( 19314 PWs)   bands (ev):

   -22.3192 -22.3192 -22.3189 -22.3189 -22.2935 -22.2935 -22.2912 -22.2912
   -22.2742 -22.2742 -22.2671 -22.2671 -22.2466 -22.2466 -22.2416 -22.2416
   -22.2335 -22.2335 -22.2292 -22.2292 -13.7555 -13.7555 -13.2738 -13.2738
    -8.2238  -8.2238  -7.7121  -7.7121  -5.4538  -5.4538  -4.4136  -4.4136
    -4.1335  -4.1335  -3.3411  -3.3411  -2.9089  -2.9089  -2.0261  -2.0261
     0.7250   0.7250   1.9350   1.9350   2.1017   2.1017   2.3872   2.3872

     occupation numbers 
     1.0000   1.0000   1.0000   1.0000   1.0000   1.0000   1.0000   1.0000
     1.0000   1.0000   1.0000   1.0000   1.0000   1.0000   1.0000   1.0000
     1.0000   1.0000   1.0000   1.0000   1.0000   1.0000   1.0000   1.0000
     1.0000   1.0000   1.0000   1.0000   1.0000   1.0000   1.0000   1.0000
     1.0000   1.0000   1.0000   1.0000   1.0000   1.0000   1.0000   1.0000
     0.0000   0.0000   0.0000   0.0000   0.0000   0.0000   0.0000   0.0000

          k = 0.3750 0.3644 0.0000 ( 19299 PWs)   bands (ev):

   -22.3235 -22.3235 -22.3232 -22.3232 -22.2906 -22.2906 -22.2892 -22.2892
   -22.2710 -22.2710 -22.2677 -22.2677 -22.2459 -22.2459 -22.2430 -22.2430
   -22.2316 -22.2316 -22.2293 -22.2293 -13.5600 -13.5600 -13.2878 -13.2878
    -7.9234  -7.9234  -7.6584  -7.6584  -5.8483  -5.8483  -4.9904  -4.9904
    -4.4711  -4.4711  -3.7400  -3.7400  -3.0459  -3.0459  -2.4988  -2.4988
     1.4245   1.4245   2.4914   2.4914   2.6436   2.6436   2.9677   2.9677

     occupation numbers 
     1.0000   1.0000   1.0000   1.0000   1.0000   1.0000   1.0000   1.0000
     1.0000   1.0000   1.0000   1.0000   1.0000   1.0000   1.0000   1.0000
     1.0000   1.0000   1.0000   1.0000   1.0000   1.0000   1.0000   1.0000
     1.0000   1.0000   1.0000   1.0000   1.0000   1.0000   1.0000   1.0000
     1.0000   1.0000   1.0000   1.0000   1.0000   1.0000   1.0000   1.0000
     0.0000   0.0000   0.0000   0.0000   0.0000   0.0000   0.0000   0.0000

          k = 0.3750 0.3644-0.1018 ( 19312 PWs)   bands (ev):

   -22.3235 -22.3235 -22.3232 -22.3232 -22.2906 -22.2906 -22.2892 -22.2892
   -22.2710 -22.2710 -22.2677 -22.2677 -22.2459 -22.2459 -22.2430 -22.2430
   -22.2316 -22.2316 -22.2293 -22.2293 -13.5600 -13.5600 -13.2878 -13.2878
    -7.9234  -7.9234  -7.6584  -7.6584  -5.8483  -5.8483  -4.9904  -4.9904
    -4.4711  -4.4711  -3.7400  -3.7400  -3.0459  -3.0459  -2.4988  -2.4988
     1.4245   1.4245   2.4914   2.4914   2.6436   2.6436   2.9677   2.9677

     occupation numbers 
     1.0000   1.0000   1.0000   1.0000   1.0000   1.0000   1.0000   1.0000
     1.0000   1.0000   1.0000   1.0000   1.0000   1.0000   1.0000   1.0000
     1.0000   1.0000   1.0000   1.0000   1.0000   1.0000   1.0000   1.0000
     1.0000   1.0000   1.0000   1.0000   1.0000   1.0000   1.0000   1.0000
     1.0000   1.0000   1.0000   1.0000   1.0000   1.0000   1.0000   1.0000
     0.0000   0.0000   0.0000   0.0000   0.0000   0.0000   0.0000   0.0000

          k = 0.3750-0.4859 0.0000 ( 19318 PWs)   bands (ev):

   -22.3253 -22.3253 -22.3250 -22.3250 -22.2892 -22.2892 -22.2889 -22.2889
   -22.2688 -22.2688 -22.2686 -22.2686 -22.2445 -22.2445 -22.2444 -22.2444
   -22.2302 -22.2302 -22.2301 -22.2301 -13.3852 -13.3852 -13.3849 -13.3849
    -7.7187  -7.7187  -7.7185  -7.7185  -5.6569  -5.6569  -5.6568  -5.6568
    -4.2398  -4.2398  -4.2397  -4.2397  -2.8378  -2.8378  -2.8377  -2.8377
     2.1070   2.1070   2.1072   2.1072   2.9342   2.9342   2.9343   2.9343

     occupation numbers 
     1.0000   1.0000   1.0000   1.0000   1.0000   1.0000   1.0000   1.0000
     1.0000   1.0000   1.0000   1.0000   1.0000   1.0000   1.0000   1.0000
     1.0000   1.0000   1.0000   1.0000   1.0000   1.0000   1.0000   1.0000
     1.0000   1.0000   1.0000   1.0000   1.0000   1.0000   1.0000   1.0000
     1.0000   1.0000   1.0000   1.0000   1.0000   1.0000   1.0000   1.0000
     0.0000   0.0000   0.0000   0.0000   0.0000   0.0000   0.0000   0.0000

          k = 0.3750-0.4859-0.1018 ( 19336 PWs)   bands (ev):

   -22.3253 -22.3253 -22.3250 -22.3250 -22.2892 -22.2892 -22.2889 -22.2889
   -22.2688 -22.2688 -22.2686 -22.2686 -22.2445 -22.2445 -22.2444 -22.2444
   -22.2302 -22.2302 -22.2301 -22.2301 -13.3852 -13.3852 -13.3849 -13.3849
    -7.7187  -7.7187  -7.7185  -7.7185  -5.6569  -5.6569  -5.6568  -5.6568
    -4.2398  -4.2398  -4.2397  -4.2397  -2.8378  -2.8378  -2.8377  -2.8377
     2.1070   2.1070   2.1072   2.1072   2.9342   2.9342   2.9343   2.9343

     occupation numbers 
     1.0000   1.0000   1.0000   1.0000   1.0000   1.0000   1.0000   1.0000
     1.0000   1.0000   1.0000   1.0000   1.0000   1.0000   1.0000   1.0000
     1.0000   1.0000   1.0000   1.0000   1.0000   1.0000   1.0000   1.0000
     1.0000   1.0000   1.0000   1.0000   1.0000   1.0000   1.0000   1.0000
     1.0000   1.0000   1.0000   1.0000   1.0000   1.0000   1.0000   1.0000
     0.0000   0.0000   0.0000   0.0000   0.0000   0.0000   0.0000   0.0000

          k =-0.5000 0.0000 0.0000 ( 19284 PWs)   bands (ev):

   -22.3141 -22.3141 -22.3139 -22.3139 -22.2952 -22.2952 -22.2948 -22.2948
   -22.2718 -22.2718 -22.2716 -22.2716 -22.2436 -22.2436 -22.2433 -22.2433
   -22.2324 -22.2324 -22.2321 -22.2321 -13.5914 -13.5914 -13.5911 -13.5911
    -8.3885  -8.3885  -8.3883  -8.3883  -3.9350  -3.9350  -3.9348  -3.9348
    -3.2723  -3.2723  -3.2720  -3.2720  -1.8710  -1.8710  -1.8707  -1.8707
     0.4052   0.4052   0.4054   0.4054   1.3675   1.3675   1.3678   1.3678

     occupation numbers 
     1.0000   1.0000   1.0000   1.0000   1.0000   1.0000   1.0000   1.0000
     1.0000   1.0000   1.0000   1.0000   1.0000   1.0000   1.0000   1.0000
     1.0000   1.0000   1.0000   1.0000   1.0000   1.0000   1.0000   1.0000
     1.0000   1.0000   1.0000   1.0000   1.0000   1.0000   1.0000   1.0000
     1.0000   1.0000   1.0000   1.0000   1.0000   1.0000   1.0000   1.0000
     0.0000   0.0000   0.0000   0.0000   0.0000   0.0000   0.0000   0.0000

          k =-0.5000 0.0000-0.1018 ( 19304 PWs)   bands (ev):

   -22.3141 -22.3141 -22.3139 -22.3139 -22.2952 -22.2952 -22.2948 -22.2948
   -22.2718 -22.2718 -22.2716 -22.2716 -22.2436 -22.2436 -22.2433 -22.2433
   -22.2324 -22.2324 -22.2321 -22.2321 -13.5914 -13.5914 -13.5911 -13.5911
    -8.3885  -8.3885  -8.3883  -8.3883  -3.9350  -3.9350  -3.9348  -3.9348
    -3.2723  -3.2723  -3.2720  -3.2720  -1.8710  -1.8710  -1.8707  -1.8707
     0.4052   0.4052   0.4054   0.4054   1.3675   1.3675   1.3678   1.3678

     occupation numbers 
     1.0000   1.0000   1.0000   1.0000   1.0000   1.0000   1.0000   1.0000
     1.0000   1.0000   1.0000   1.0000   1.0000   1.0000   1.0000   1.0000
     1.0000   1.0000   1.0000   1.0000   1.0000   1.0000   1.0000   1.0000
     1.0000   1.0000   1.0000   1.0000   1.0000   1.0000   1.0000   1.0000
     1.0000   1.0000   1.0000   1.0000   1.0000   1.0000   1.0000   1.0000
     0.0000   0.0000   0.0000   0.0000   0.0000   0.0000   0.0000   0.0000

          k =-0.5000 0.1215 0.0000 ( 19276 PWs)   bands (ev):

   -22.3163 -22.3163 -22.3160 -22.3160 -22.2937 -22.2937 -22.2934 -22.2934
   -22.2715 -22.2715 -22.2712 -22.2712 -22.2439 -22.2439 -22.2437 -22.2437
   -22.2318 -22.2318 -22.2316 -22.2316 -13.5548 -13.5548 -13.5545 -13.5545
    -8.3046  -8.3046  -8.3044  -8.3044  -4.2405  -4.2405  -4.2403  -4.2403
    -3.5171  -3.5171  -3.5169  -3.5169  -2.0116  -2.0116  -2.0113  -2.0113
     0.4810   0.4810   0.4811   0.4811   1.9916   1.9916   1.9918   1.9918

     occupation numbers 
     1.0000   1.0000   1.0000   1.0000   1.0000   1.0000   1.0000   1.0000
     1.0000   1.0000   1.0000   1.0000   1.0000   1.0000   1.0000   1.0000
     1.0000   1.0000   1.0000   1.0000   1.0000   1.0000   1.0000   1.0000
     1.0000   1.0000   1.0000   1.0000   1.0000   1.0000   1.0000   1.0000
     1.0000   1.0000   1.0000   1.0000   1.0000   1.0000   1.0000   1.0000
     0.0000   0.0000   0.0000   0.0000   0.0000   0.0000   0.0000   0.0000

          k =-0.5000 0.1215-0.1018 ( 19320 PWs)   bands (ev):

   -22.3163 -22.3163 -22.3160 -22.3160 -22.2937 -22.2937 -22.2934 -22.2934
   -22.2715 -22.2715 -22.2712 -22.2712 -22.2440 -22.2440 -22.2437 -22.2437
   -22.2319 -22.2319 -22.2316 -22.2316 -13.5548 -13.5548 -13.5545 -13.5545
    -8.3046  -8.3046  -8.3044  -8.3044  -4.2405  -4.2405  -4.2403  -4.2403
    -3.5171  -3.5171  -3.5169  -3.5169  -2.0116  -2.0116  -2.0113  -2.0113
     0.4810   0.4810   0.4811   0.4811   1.9916   1.9916   1.9918   1.9918

     occupation numbers 
     1.0000   1.0000   1.0000   1.0000   1.0000   1.0000   1.0000   1.0000
     1.0000   1.0000   1.0000   1.0000   1.0000   1.0000   1.0000   1.0000
     1.0000   1.0000   1.0000   1.0000   1.0000   1.0000   1.0000   1.0000
     1.0000   1.0000   1.0000   1.0000   1.0000   1.0000   1.0000   1.0000
     1.0000   1.0000   1.0000   1.0000   1.0000   1.0000   1.0000   1.0000
     0.0000   0.0000   0.0000   0.0000   0.0000   0.0000   0.0000   0.0000

          k =-0.5000 0.2429 0.0000 ( 19336 PWs)   bands (ev):

   -22.3212 -22.3212 -22.3209 -22.3209 -22.2905 -22.2905 -22.2902 -22.2902
   -22.2706 -22.2706 -22.2703 -22.2703 -22.2445 -22.2445 -22.2444 -22.2444
   -22.2307 -22.2307 -22.2305 -22.2305 -13.4632 -13.4632 -13.4629 -13.4629
    -8.0749  -8.0749  -8.0747  -8.0747  -4.9742  -4.9742  -4.9741  -4.9741
    -3.8038  -3.8038  -3.8037  -3.8037  -2.5842  -2.5842  -2.5840  -2.5840
     1.3169   1.3169   1.3169   1.3169   2.5235   2.5235   2.5235   2.5235

     occupation numbers 
     1.0000   1.0000   1.0000   1.0000   1.0000   1.0000   1.0000   1.0000
     1.0000   1.0000   1.0000   1.0000   1.0000   1.0000   1.0000   1.0000
     1.0000   1.0000   1.0000   1.0000   1.0000   1.0000   1.0000   1.0000
     1.0000   1.0000   1.0000   1.0000   1.0000   1.0000   1.0000   1.0000
     1.0000   1.0000   1.0000   1.0000   1.0000   1.0000   1.0000   1.0000
     0.0000   0.0000   0.0000   0.0000   0.0000   0.0000   0.0000   0.0000

          k =-0.5000 0.2429-0.1018 ( 19316 PWs)   bands (ev):

   -22.3212 -22.3212 -22.3209 -22.3209 -22.2905 -22.2905 -22.2902 -22.2902
   -22.2705 -22.2705 -22.2703 -22.2703 -22.2445 -22.2445 -22.2444 -22.2444
   -22.2307 -22.2307 -22.2305 -22.2305 -13.4632 -13.4632 -13.4629 -13.4629
    -8.0749  -8.0749  -8.0747  -8.0747  -4.9742  -4.9742  -4.9741  -4.9741
    -3.8038  -3.8038  -3.8037  -3.8037  -2.5842  -2.5842  -2.5840  -2.5840
     1.3169   1.3169   1.3169   1.3169   2.5235   2.5235   2.5235   2.5235

     occupation numbers 
     1.0000   1.0000   1.0000   1.0000   1.0000   1.0000   1.0000   1.0000
     1.0000   1.0000   1.0000   1.0000   1.0000   1.0000   1.0000   1.0000
     1.0000   1.0000   1.0000   1.0000   1.0000   1.0000   1.0000   1.0000
     1.0000   1.0000   1.0000   1.0000   1.0000   1.0000   1.0000   1.0000
     1.0000   1.0000   1.0000   1.0000   1.0000   1.0000   1.0000   1.0000
     0.0000   0.0000   0.0000   0.0000   0.0000   0.0000   0.0000   0.0000

          k =-0.5000 0.3644 0.0000 ( 19318 PWs)   bands (ev):

   -22.3260 -22.3260 -22.3257 -22.3257 -22.2879 -22.2879 -22.2876 -22.2876
   -22.2695 -22.2695 -22.2693 -22.2693 -22.2446 -22.2446 -22.2446 -22.2446
   -22.2298 -22.2298 -22.2296 -22.2296 -13.3665 -13.3665 -13.3662 -13.3662
    -7.7882  -7.7882  -7.7880  -7.7880  -5.5515  -5.5515  -5.5515  -5.5515
    -4.3187  -4.3187  -4.3187  -4.3187  -2.8328  -2.8328  -2.8328  -2.8328
     2.0602   2.0602   2.0604   2.0604   2.9622   2.9622   2.9623   2.9623

     occupation numbers 
     1.0000   1.0000   1.0000   1.0000   1.0000   1.0000   1.0000   1.0000
     1.0000   1.0000   1.0000   1.0000   1.0000   1.0000   1.0000   1.0000
     1.0000   1.0000   1.0000   1.0000   1.0000   1.0000   1.0000   1.0000
     1.0000   1.0000   1.0000   1.0000   1.0000   1.0000   1.0000   1.0000
     1.0000   1.0000   1.0000   1.0000   1.0000   1.0000   1.0000   1.0000
     0.0000   0.0000   0.0000   0.0000   0.0000   0.0000   0.0000   0.0000

          k =-0.5000 0.3644-0.1018 ( 19312 PWs)   bands (ev):

   -22.3260 -22.3260 -22.3257 -22.3257 -22.2879 -22.2879 -22.2876 -22.2876
   -22.2694 -22.2694 -22.2693 -22.2693 -22.2446 -22.2446 -22.2446 -22.2446
   -22.2298 -22.2298 -22.2296 -22.2296 -13.3665 -13.3665 -13.3662 -13.3662
    -7.7882  -7.7882  -7.7880  -7.7880  -5.5515  -5.5515  -5.5515  -5.5515
    -4.3187  -4.3187  -4.3187  -4.3187  -2.8328  -2.8328  -2.8328  -2.8328
     2.0602   2.0602   2.0604   2.0604   2.9622   2.9622   2.9623   2.9623

     occupation numbers 
     1.0000   1.0000   1.0000   1.0000   1.0000   1.0000   1.0000   1.0000
     1.0000   1.0000   1.0000   1.0000   1.0000   1.0000   1.0000   1.0000
     1.0000   1.0000   1.0000   1.0000   1.0000   1.0000   1.0000   1.0000
     1.0000   1.0000   1.0000   1.0000   1.0000   1.0000   1.0000   1.0000
     1.0000   1.0000   1.0000   1.0000   1.0000   1.0000   1.0000   1.0000
     0.0000   0.0000   0.0000   0.0000   0.0000   0.0000   0.0000   0.0000

          k =-0.5000-0.4859 0.0000 ( 19344 PWs)   bands (ev):

   -22.3280 -22.3280 -22.3277 -22.3277 -22.2871 -22.2871 -22.2868 -22.2868
   -22.2689 -22.2689 -22.2687 -22.2687 -22.2446 -22.2446 -22.2445 -22.2445
   -22.2294 -22.2294 -22.2293 -22.2293 -13.3248 -13.3248 -13.3244 -13.3244
    -7.6427  -7.6427  -7.6425  -7.6425  -5.7546  -5.7546  -5.7546  -5.7546
    -4.6077  -4.6077  -4.6077  -4.6077  -2.8605  -2.8605  -2.8605  -2.8605
     2.3227   2.3227   2.3228   2.3228   3.1252   3.1252   3.1252   3.1252

     occupation numbers 
     1.0000   1.0000   1.0000   1.0000   1.0000   1.0000   1.0000   1.0000
     1.0000   1.0000   1.0000   1.0000   1.0000   1.0000   1.0000   1.0000
     1.0000   1.0000   1.0000   1.0000   1.0000   1.0000   1.0000   1.0000
     1.0000   1.0000   1.0000   1.0000   1.0000   1.0000   1.0000   1.0000
     1.0000   1.0000   1.0000   1.0000   1.0000   1.0000   1.0000   1.0000
     0.0000   0.0000   0.0000   0.0000   0.0000   0.0000   0.0000   0.0000

          k =-0.5000-0.4859-0.1018 ( 19344 PWs)   bands (ev):

   -22.3280 -22.3280 -22.3277 -22.3277 -22.2871 -22.2871 -22.2868 -22.2868
   -22.2689 -22.2689 -22.2687 -22.2687 -22.2446 -22.2446 -22.2445 -22.2445
   -22.2294 -22.2294 -22.2293 -22.2293 -13.3248 -13.3248 -13.3244 -13.3244
    -7.6427  -7.6427  -7.6425  -7.6425  -5.7546  -5.7546  -5.7546  -5.7546
    -4.6077  -4.6077  -4.6077  -4.6077  -2.8605  -2.8605  -2.8605  -2.8605
     2.3227   2.3227   2.3228   2.3228   3.1252   3.1252   3.1252   3.1252

     occupation numbers 
     1.0000   1.0000   1.0000   1.0000   1.0000   1.0000   1.0000   1.0000
     1.0000   1.0000   1.0000   1.0000   1.0000   1.0000   1.0000   1.0000
     1.0000   1.0000   1.0000   1.0000   1.0000   1.0000   1.0000   1.0000
     1.0000   1.0000   1.0000   1.0000   1.0000   1.0000   1.0000   1.0000
     1.0000   1.0000   1.0000   1.0000   1.0000   1.0000   1.0000   1.0000
     0.0000   0.0000   0.0000   0.0000   0.0000   0.0000   0.0000   0.0000

     the Fermi energy is    -0.6143 ev
     (compare with:    -0.6143 eV, computed in scf)

     Writing output data file ./SnS.save/
 
     init_run     :      0.96s CPU      1.14s WALL (       1 calls)
     electrons    :    341.56s CPU    353.23s WALL (       1 calls)

     Called by init_run:
     wfcinit      :      0.00s CPU      0.00s WALL (       1 calls)
     wfcinit:atom :      0.05s CPU      0.05s WALL (      50 calls)
     wfcinit:wfcr :      6.22s CPU      6.48s WALL (      50 calls)
     potinit      :      0.08s CPU      0.15s WALL (       1 calls)
     hinit0       :      0.56s CPU      0.58s WALL (       1 calls)

     Called by electrons:
     c_bands      :    341.55s CPU    353.22s WALL (       1 calls)
     v_of_rho     :      0.05s CPU      0.06s WALL (       1 calls)
     v_h          :      0.00s CPU      0.00s WALL (       1 calls)
     v_xc         :      0.05s CPU      0.05s WALL (       1 calls)
     newd         :      0.20s CPU      0.26s WALL (       1 calls)

     Called by c_bands:
     init_us_2    :      0.04s CPU      0.04s WALL (      50 calls)
     cegterg      :    333.22s CPU    344.49s WALL (     208 calls)

     Called by sum_band:

     Called by *egterg:
     cdiaghg      :      9.57s CPU      9.59s WALL (    3677 calls)
     cegterg:over :     38.14s CPU     40.01s WALL (    3627 calls)
     cegterg:upda :     12.02s CPU     12.03s WALL (    3627 calls)
     cegterg:last :     28.90s CPU     28.92s WALL (    2169 calls)
     h_psi        :    214.43s CPU    221.98s WALL (    3885 calls)
     s_psi        :      6.66s CPU      6.67s WALL (    3885 calls)
     g_psi        :      1.81s CPU      1.82s WALL (    3627 calls)

     Called by h_psi:
     h_psi:calbec :     12.28s CPU     12.98s WALL (    3885 calls)
     vloc_psi     :    193.94s CPU    200.77s WALL (    3885 calls)
     add_vuspsi   :      7.00s CPU      7.02s WALL (    3885 calls)

     General routines
     calbec       :     12.27s CPU     12.97s WALL (    3885 calls)
     fft          :      0.06s CPU      0.09s WALL (      19 calls)
     ffts         :      0.00s CPU      0.00s WALL (       4 calls)
     fftw         :    166.02s CPU    172.03s WALL (  438272 calls)
     interpolate  :      0.01s CPU      0.01s WALL (       4 calls)
     davcio       :      0.02s CPU      0.14s WALL (     100 calls)
 
     Parallel routines
 
     PWSCF        :   5m44.88s CPU   6m22.61s WALL

 
   This run was terminated on:  13:11:18  19Mar2023            

=------------------------------------------------------------------------------=
   JOB DONE.
=------------------------------------------------------------------------------=
