
     Program BANDS v.6.8 starts on 19Mar2023 at 13:25:55 

     This program is part of the open-source Quantum ESPRESSO suite
     for quantum simulation of materials; please cite
         "P. Giannozzi et al., J. Phys.:Condens. Matter 21 395502 (2009);
         "P. Giannozzi et al., J. Phys.:Condens. Matter 29 465901 (2017);
         "P. Giannozzi et al., J. Chem. Phys. 152 154105 (2020);
          URL http://www.quantum-espresso.org", 
     in publications or presentations arising from this work. More details at
     http://www.quantum-espresso.org/quote

     Parallel version (MPI), running on    12 processors

     MPI processes distributed on     1 nodes
     R & G space division:  proc/nbgrp/npool/nimage =      12
     232861 MiB available memory on the printing compute node when the environment starts
 

     Reading xml data from directory:

     ./SnS.save/

     IMPORTANT: XC functional enforced from input :
     Exchange-correlation= PBESOL
                           (   1   4  10   8   0   0   0)
     Any further DFT definition will be discarded
     Please, verify this is what you really want

 
     Parallelization info
     --------------------
     sticks:   dense  smooth     PW     G-vecs:    dense   smooth      PW
     Min         206     103     29                37124    13119    2015
     Max         207     104     30                37137    13128    2028
     Sum        2475    1241    357               445547   157475   24211
 
     Using Slab Decomposition
 

     negative rho (up, down):  4.902E-05 0.000E+00
     Reading collected, re-writing distributed wavefunctions
     high-symmetry point:  0.0000 0.0000 0.0000   x coordinate   0.0000
     high-symmetry point:  0.5000 0.0000 0.0000   x coordinate   0.5000
     high-symmetry point:  0.5000 0.4954 0.0000   x coordinate   0.9954
     high-symmetry point:  0.0000 0.4954 0.0000   x coordinate   1.4954
     high-symmetry point:  0.0000 0.0000 0.0000   x coordinate   1.9908

     Plottable bands (eV) written to file SnS_bands.dat.gnu
     Bands written to file SnS_bands.dat

 **************************************************************************

                    xk=(   0.00000,   0.00000,   0.00000  )

     double point group C_s (m)    
     there are  4 classes and  2 irreducible representations
     the character table:

       E     -E    s     -s   
                              
G_3    1.00 -1.00  0.00  0.00
G_4    1.00 -1.00  0.00  0.00

     imaginary part

       E     -E    s     -s   
                              
G_3    0.00  0.00  1.00 -1.00
G_4    0.00  0.00 -1.00  1.00

     the symmetry operations in each class and the name of the first element:

     E             1
                                                                 
     -E           -1
                                                                 
     s             2
                                                                 
     -s           -2
                                                                 

     Band symmetry, C_s (m)     double point group:

     e(  1 -  2) =    -22.41638  eV     2   --> G_3            
     e(  1 -  2) =    -22.41638  eV     2   --> G_4            
     e(  3 -  4) =    -22.40827  eV     2   --> G_3            
     e(  3 -  4) =    -22.40827  eV     2   --> G_4            
     e(  5 -  6) =    -22.40705  eV     2   --> G_3            
     e(  5 -  6) =    -22.40705  eV     2   --> G_4            
     e(  7 -  8) =    -22.39856  eV     2   --> G_3            
     e(  7 -  8) =    -22.39856  eV     2   --> G_4            
     e(  9 - 10) =    -22.39570  eV     2   --> G_3            
     e(  9 - 10) =    -22.39570  eV     2   --> G_4            
     e( 11 - 12) =    -22.36185  eV     2   --> G_3            
     e( 11 - 12) =    -22.36185  eV     2   --> G_4            
     e( 13 - 14) =    -22.34786  eV     2   --> G_3            
     e( 13 - 14) =    -22.34786  eV     2   --> G_4            
     e( 15 - 16) =    -22.34748  eV     2   --> G_3            
     e( 15 - 16) =    -22.34748  eV     2   --> G_4            
     e( 17 - 18) =    -22.33164  eV     2   --> G_3            
     e( 17 - 18) =    -22.33164  eV     2   --> G_4            
     e( 19 - 20) =    -22.33018  eV     2   --> G_3            
     e( 19 - 20) =    -22.33018  eV     2   --> G_4            
     e( 21 - 22) =    -14.62017  eV     2   --> G_3            
     e( 21 - 22) =    -14.62017  eV     2   --> G_4            
     e( 23 - 24) =    -13.22464  eV     2   --> G_3            
     e( 23 - 24) =    -13.22464  eV     2   --> G_4            
     e( 25 - 26) =     -7.85144  eV     2   --> G_3            
     e( 25 - 26) =     -7.85144  eV     2   --> G_4            
     e( 27 - 28) =     -6.12368  eV     2   --> G_3            
     e( 27 - 28) =     -6.12368  eV     2   --> G_4            
     e( 29 - 30) =     -4.90598  eV     2   --> G_3            
     e( 29 - 30) =     -4.90598  eV     2   --> G_4            
     e( 31 - 32) =     -4.74736  eV     2   --> G_3            
     e( 31 - 32) =     -4.74736  eV     2   --> G_4            
     e( 33 - 34) =     -4.38460  eV     2   --> G_3            
     e( 33 - 34) =     -4.38460  eV     2   --> G_4            
     e( 35 - 36) =     -3.38378  eV     2   --> G_3            
     e( 35 - 36) =     -3.38378  eV     2   --> G_4            
     e( 37 - 38) =     -2.97106  eV     2   --> G_3            
     e( 37 - 38) =     -2.97106  eV     2   --> G_4            
     e( 39 - 40) =     -1.76835  eV     2   --> G_3            
     e( 39 - 40) =     -1.76835  eV     2   --> G_4            
     e( 41 - 42) =      0.51111  eV     2   --> G_3            
     e( 41 - 42) =      0.51111  eV     2   --> G_4            
     e( 43 - 44) =      1.55604  eV     2   --> G_3            
     e( 43 - 44) =      1.55604  eV     2   --> G_4            
     e( 45 - 46) =      2.20225  eV     2   --> G_3            
     e( 45 - 46) =      2.20225  eV     2   --> G_4            
     e( 47 - 48) =      2.66962  eV     2   --> G_3            
     e( 47 - 48) =      2.66962  eV     2   --> G_4            

 **************************************************************************

 **************************************************************************

                    xk=(   0.02500,   0.00000,   0.00000  )

     double point group C_1 (1)    
     there are  2 classes and  1 irreducible representations
     the character table:

       E     -E   
                  
G_2    1.00 -1.00

     the symmetry operations in each class and the name of the first element:

     E             1
                                                                 
     -E           -1
                                                                 

     Band symmetry, C_1 (1)     double point group:

     e(  1 -  2) =    -22.41629  eV     2   -->   2 G_2            
     e(  3 -  4) =    -22.40834  eV     2   -->   2 G_2            
     e(  5 -  6) =    -22.40698  eV     2   -->   2 G_2            
     e(  7 -  8) =    -22.39889  eV     2   -->   2 G_2            
     e(  9 - 10) =    -22.39536  eV     2   -->   2 G_2            
     e( 11 - 12) =    -22.36187  eV     2   -->   2 G_2            
     e( 13 - 14) =    -22.34786  eV     2   -->   2 G_2            
     e( 15 - 16) =    -22.34744  eV     2   -->   2 G_2            
     e( 17 - 18) =    -22.33165  eV     2   -->   2 G_2            
     e( 19 - 20) =    -22.33023  eV     2   -->   2 G_2            
     e( 21 - 22) =    -14.61702  eV     2   -->   2 G_2            
     e( 23 - 24) =    -13.22444  eV     2   -->   2 G_2            
     e( 25 - 26) =     -7.86006  eV     2   -->   2 G_2            
     e( 27 - 28) =     -6.13823  eV     2   -->   2 G_2            
     e( 29 - 30) =     -4.90666  eV     2   -->   2 G_2            
     e( 31 - 32) =     -4.74187  eV     2   -->   2 G_2            
     e( 33 - 34) =     -4.37960  eV     2   -->   2 G_2            
     e( 35 - 36) =     -3.37090  eV     2   -->   2 G_2            
     e( 37 - 38) =     -2.96616  eV     2   -->   2 G_2            
     e( 39 - 40) =     -1.77128  eV     2   -->   2 G_2            
     e( 41 - 42) =      0.51513  eV     2   -->   2 G_2            
     e( 43 - 44) =      1.56733  eV     2   -->   2 G_2            
     e( 45 - 46) =      2.19801  eV     2   -->   2 G_2            
     e( 47 - 48) =      2.64107  eV     2   -->   2 G_2            

 **************************************************************************

 **************************************************************************

                    xk=(   0.05000,   0.00000,   0.00000  )

     Band symmetry, C_1 (1)     double point group:

     e(  1 -  2) =    -22.41605  eV     2   -->   2 G_2            
     e(  3 -  4) =    -22.40852  eV     2   -->   2 G_2            
     e(  5 -  6) =    -22.40677  eV     2   -->   2 G_2            
     e(  7 -  8) =    -22.39961  eV     2   -->   2 G_2            
     e(  9 - 10) =    -22.39460  eV     2   -->   2 G_2            
     e( 11 - 12) =    -22.36192  eV     2   -->   2 G_2            
     e( 13 - 14) =    -22.34786  eV     2   -->   2 G_2            
     e( 15 - 16) =    -22.34729  eV     2   -->   2 G_2            
     e( 17 - 18) =    -22.33165  eV     2   -->   2 G_2            
     e( 19 - 20) =    -22.33039  eV     2   -->   2 G_2            
     e( 21 - 22) =    -14.60760  eV     2   -->   2 G_2            
     e( 23 - 24) =    -13.22387  eV     2   -->   2 G_2            
     e( 25 - 26) =     -7.88541  eV     2   -->   2 G_2            
     e( 27 - 28) =     -6.18134  eV     2   -->   2 G_2            
     e( 29 - 30) =     -4.90755  eV     2   -->   2 G_2            
     e( 31 - 32) =     -4.72568  eV     2   -->   2 G_2            
     e( 33 - 34) =     -4.36461  eV     2   -->   2 G_2            
     e( 35 - 36) =     -3.33479  eV     2   -->   2 G_2            
     e( 37 - 38) =     -2.95064  eV     2   -->   2 G_2            
     e( 39 - 40) =     -1.78012  eV     2   -->   2 G_2            
     e( 41 - 42) =      0.52722  eV     2   -->   2 G_2            
     e( 43 - 44) =      1.60056  eV     2   -->   2 G_2            
     e( 45 - 46) =      2.18340  eV     2   -->   2 G_2            
     e( 47 - 48) =      2.54958  eV     2   -->   2 G_2            

 **************************************************************************

 **************************************************************************

                    xk=(   0.07500,   0.00000,   0.00000  )

     Band symmetry, C_1 (1)     double point group:

     e(  1 -  2) =    -22.41567  eV     2   -->   2 G_2            
     e(  3 -  4) =    -22.40881  eV     2   -->   2 G_2            
     e(  5 -  6) =    -22.40645  eV     2   -->   2 G_2            
     e(  7 -  8) =    -22.40049  eV     2   -->   2 G_2            
     e(  9 - 10) =    -22.39368  eV     2   -->   2 G_2            
     e( 11 - 12) =    -22.36202  eV     2   -->   2 G_2            
     e( 13 - 14) =    -22.34785  eV     2   -->   2 G_2            
     e( 15 - 16) =    -22.34706  eV     2   -->   2 G_2            
     e( 17 - 18) =    -22.33166  eV     2   -->   2 G_2            
     e( 19 - 20) =    -22.33065  eV     2   -->   2 G_2            
     e( 21 - 22) =    -14.59195  eV     2   -->   2 G_2            
     e( 23 - 24) =    -13.22312  eV     2   -->   2 G_2            
     e( 25 - 26) =     -7.92606  eV     2   -->   2 G_2            
     e( 27 - 28) =     -6.25132  eV     2   -->   2 G_2            
     e( 29 - 30) =     -4.90595  eV     2   -->   2 G_2            
     e( 31 - 32) =     -4.69960  eV     2   -->   2 G_2            
     e( 33 - 34) =     -4.33973  eV     2   -->   2 G_2            
     e( 35 - 36) =     -3.28253  eV     2   -->   2 G_2            
     e( 37 - 38) =     -2.92188  eV     2   -->   2 G_2            
     e( 39 - 40) =     -1.79497  eV     2   -->   2 G_2            
     e( 41 - 42) =      0.54743  eV     2   -->   2 G_2            
     e( 43 - 44) =      1.65363  eV     2   -->   2 G_2            
     e( 45 - 46) =      2.15104  eV     2   -->   2 G_2            
     e( 47 - 48) =      2.40854  eV     2   -->   2 G_2            

 **************************************************************************

 **************************************************************************

                    xk=(   0.10000,   0.00000,   0.00000  )

     Band symmetry, C_1 (1)     double point group:

     e(  1 -  2) =    -22.41516  eV     2   -->   2 G_2            
     e(  3 -  4) =    -22.40918  eV     2   -->   2 G_2            
     e(  5 -  6) =    -22.40605  eV     2   -->   2 G_2            
     e(  7 -  8) =    -22.40142  eV     2   -->   2 G_2            
     e(  9 - 10) =    -22.39266  eV     2   -->   2 G_2            
     e( 11 - 12) =    -22.36216  eV     2   -->   2 G_2            
     e( 13 - 14) =    -22.34781  eV     2   -->   2 G_2            
     e( 15 - 16) =    -22.34674  eV     2   -->   2 G_2            
     e( 17 - 18) =    -22.33169  eV     2   -->   2 G_2            
     e( 19 - 20) =    -22.33101  eV     2   -->   2 G_2            
     e( 21 - 22) =    -14.57017  eV     2   -->   2 G_2            
     e( 23 - 24) =    -13.22246  eV     2   -->   2 G_2            
     e( 25 - 26) =     -7.97982  eV     2   -->   2 G_2            
     e( 27 - 28) =     -6.34531  eV     2   -->   2 G_2            
     e( 29 - 30) =     -4.89891  eV     2   -->   2 G_2            
     e( 31 - 32) =     -4.66475  eV     2   -->   2 G_2            
     e( 33 - 34) =     -4.30515  eV     2   -->   2 G_2            
     e( 35 - 36) =     -3.22434  eV     2   -->   2 G_2            
     e( 37 - 38) =     -2.87551  eV     2   -->   2 G_2            
     e( 39 - 40) =     -1.81596  eV     2   -->   2 G_2            
     e( 41 - 42) =      0.57581  eV     2   -->   2 G_2            
     e( 43 - 44) =      1.72278  eV     2   -->   2 G_2            
     e( 45 - 46) =      2.07799  eV     2   -->   2 G_2            
     e( 47 - 48) =      2.25898  eV     2   -->   2 G_2            

 **************************************************************************

 **************************************************************************

                    xk=(   0.12500,   0.00000,   0.00000  )

     Band symmetry, C_1 (1)     double point group:

     e(  1 -  2) =    -22.41454  eV     2   -->   2 G_2            
     e(  3 -  4) =    -22.40962  eV     2   -->   2 G_2            
     e(  5 -  6) =    -22.40557  eV     2   -->   2 G_2            
     e(  7 -  8) =    -22.40237  eV     2   -->   2 G_2            
     e(  9 - 10) =    -22.39158  eV     2   -->   2 G_2            
     e( 11 - 12) =    -22.36234  eV     2   -->   2 G_2            
     e( 13 - 14) =    -22.34776  eV     2   -->   2 G_2            
     e( 15 - 16) =    -22.34634  eV     2   -->   2 G_2            
     e( 17 - 18) =    -22.33174  eV     2   -->   2 G_2            
     e( 19 - 20) =    -22.33143  eV     2   -->   2 G_2            
     e( 21 - 22) =    -14.54239  eV     2   -->   2 G_2            
     e( 23 - 24) =    -13.22227  eV     2   -->   2 G_2            
     e( 25 - 26) =     -8.04395  eV     2   -->   2 G_2            
     e( 27 - 28) =     -6.45959  eV     2   -->   2 G_2            
     e( 29 - 30) =     -4.88436  eV     2   -->   2 G_2            
     e( 31 - 32) =     -4.62243  eV     2   -->   2 G_2            
     e( 33 - 34) =     -4.26122  eV     2   -->   2 G_2            
     e( 35 - 36) =     -3.17048  eV     2   -->   2 G_2            
     e( 37 - 38) =     -2.80727  eV     2   -->   2 G_2            
     e( 39 - 40) =     -1.84314  eV     2   -->   2 G_2            
     e( 41 - 42) =      0.61247  eV     2   -->   2 G_2            
     e( 43 - 44) =      1.80208  eV     2   -->   2 G_2            
     e( 45 - 46) =      1.92730  eV     2   -->   2 G_2            
     e( 47 - 48) =      2.14994  eV     2   -->   2 G_2            

 **************************************************************************

 **************************************************************************

                    xk=(   0.15000,   0.00000,   0.00000  )

     Band symmetry, C_1 (1)     double point group:

     e(  1 -  2) =    -22.41385  eV     2   -->   2 G_2            
     e(  3 -  4) =    -22.41012  eV     2   -->   2 G_2            
     e(  5 -  6) =    -22.40502  eV     2   -->   2 G_2            
     e(  7 -  8) =    -22.40329  eV     2   -->   2 G_2            
     e(  9 - 10) =    -22.39045  eV     2   -->   2 G_2            
     e( 11 - 12) =    -22.36256  eV     2   -->   2 G_2            
     e( 13 - 14) =    -22.34768  eV     2   -->   2 G_2            
     e( 15 - 16) =    -22.34588  eV     2   -->   2 G_2            
     e( 17 - 18) =    -22.33207  eV     2   -->   2 G_2            
     e( 19 - 20) =    -22.33168  eV     2   -->   2 G_2            
     e( 21 - 22) =    -14.50879  eV     2   -->   2 G_2            
     e( 23 - 24) =    -13.22304  eV     2   -->   2 G_2            
     e( 25 - 26) =     -8.11539  eV     2   -->   2 G_2            
     e( 27 - 28) =     -6.58996  eV     2   -->   2 G_2            
     e( 29 - 30) =     -4.86128  eV     2   -->   2 G_2            
     e( 31 - 32) =     -4.57388  eV     2   -->   2 G_2            
     e( 33 - 34) =     -4.20852  eV     2   -->   2 G_2            
     e( 35 - 36) =     -3.12681  eV     2   -->   2 G_2            
     e( 37 - 38) =     -2.71683  eV     2   -->   2 G_2            
     e( 39 - 40) =     -1.87635  eV     2   -->   2 G_2            
     e( 41 - 42) =      0.65749  eV     2   -->   2 G_2            
     e( 43 - 44) =      1.72535  eV     2   -->   2 G_2            
     e( 45 - 46) =      1.88287  eV     2   -->   2 G_2            
     e( 47 - 48) =      2.06324  eV     2   -->   2 G_2            

 **************************************************************************

 **************************************************************************

                    xk=(   0.17500,   0.00000,   0.00000  )

     Band symmetry, C_1 (1)     double point group:

     e(  1 -  2) =    -22.41315  eV     2   -->   2 G_2            
     e(  3 -  4) =    -22.41068  eV     2   -->   2 G_2            
     e(  5 -  6) =    -22.40444  eV     2   -->   2 G_2            
     e(  7 -  8) =    -22.40415  eV     2   -->   2 G_2            
     e(  9 - 10) =    -22.38926  eV     2   -->   2 G_2            
     e( 11 - 12) =    -22.36283  eV     2   -->   2 G_2            
     e( 13 - 14) =    -22.34759  eV     2   -->   2 G_2            
     e( 15 - 16) =    -22.34534  eV     2   -->   2 G_2            
     e( 17 - 18) =    -22.33266  eV     2   -->   2 G_2            
     e( 19 - 20) =    -22.33175  eV     2   -->   2 G_2            
     e( 21 - 22) =    -14.46959  eV     2   -->   2 G_2            
     e( 23 - 24) =    -13.22532  eV     2   -->   2 G_2            
     e( 25 - 26) =     -8.19100  eV     2   -->   2 G_2            
     e( 27 - 28) =     -6.73226  eV     2   -->   2 G_2            
     e( 29 - 30) =     -4.82952  eV     2   -->   2 G_2            
     e( 31 - 32) =     -4.52019  eV     2   -->   2 G_2            
     e( 33 - 34) =     -4.14787  eV     2   -->   2 G_2            
     e( 35 - 36) =     -3.09364  eV     2   -->   2 G_2            
     e( 37 - 38) =     -2.60870  eV     2   -->   2 G_2            
     e( 39 - 40) =     -1.91515  eV     2   -->   2 G_2            
     e( 41 - 42) =      0.71093  eV     2   -->   2 G_2            
     e( 43 - 44) =      1.50717  eV     2   -->   2 G_2            
     e( 45 - 46) =      1.95353  eV     2   -->   2 G_2            
     e( 47 - 48) =      1.97174  eV     2   -->   2 G_2            

 **************************************************************************

 **************************************************************************

                    xk=(   0.20000,   0.00000,   0.00000  )

     Band symmetry, C_1 (1)     double point group:

     e(  1 -  2) =    -22.41248  eV     2   -->   2 G_2            
     e(  3 -  4) =    -22.41127  eV     2   -->   2 G_2            
     e(  5 -  6) =    -22.40491  eV     2   -->   2 G_2            
     e(  7 -  8) =    -22.40383  eV     2   -->   2 G_2            
     e(  9 - 10) =    -22.38803  eV     2   -->   2 G_2            
     e( 11 - 12) =    -22.36316  eV     2   -->   2 G_2            
     e( 13 - 14) =    -22.34747  eV     2   -->   2 G_2            
     e( 15 - 16) =    -22.34473  eV     2   -->   2 G_2            
     e( 17 - 18) =    -22.33334  eV     2   -->   2 G_2            
     e( 19 - 20) =    -22.33182  eV     2   -->   2 G_2            
     e( 21 - 22) =    -14.42504  eV     2   -->   2 G_2            
     e( 23 - 24) =    -13.22978  eV     2   -->   2 G_2            
     e( 25 - 26) =     -8.26762  eV     2   -->   2 G_2            
     e( 27 - 28) =     -6.88270  eV     2   -->   2 G_2            
     e( 29 - 30) =     -4.78942  eV     2   -->   2 G_2            
     e( 31 - 32) =     -4.46230  eV     2   -->   2 G_2            
     e( 33 - 34) =     -4.08039  eV     2   -->   2 G_2            
     e( 35 - 36) =     -3.06896  eV     2   -->   2 G_2            
     e( 37 - 38) =     -2.48915  eV     2   -->   2 G_2            
     e( 39 - 40) =     -1.95872  eV     2   -->   2 G_2            
     e( 41 - 42) =      0.77284  eV     2   -->   2 G_2            
     e( 43 - 44) =      1.28558  eV     2   -->   2 G_2            
     e( 45 - 46) =      1.87150  eV     2   -->   2 G_2            
     e( 47 - 48) =      2.00025  eV     2   -->   2 G_2            

 **************************************************************************

 **************************************************************************

                    xk=(   0.22500,   0.00000,   0.00000  )

     Band symmetry, C_1 (1)     double point group:

     e(  1 -  4) =    -22.41197  eV     4   -->   4 G_2            
     e(  5 -  6) =    -22.40546  eV     2   -->   2 G_2            
     e(  7 -  8) =    -22.40321  eV     2   -->   2 G_2            
     e(  9 - 10) =    -22.38674  eV     2   -->   2 G_2            
     e( 11 - 12) =    -22.36354  eV     2   -->   2 G_2            
     e( 13 - 14) =    -22.34732  eV     2   -->   2 G_2            
     e( 15 - 16) =    -22.34407  eV     2   -->   2 G_2            
     e( 17 - 18) =    -22.33408  eV     2   -->   2 G_2            
     e( 19 - 20) =    -22.33190  eV     2   -->   2 G_2            
     e( 21 - 22) =    -14.37547  eV     2   -->   2 G_2            
     e( 23 - 24) =    -13.23709  eV     2   -->   2 G_2            
     e( 25 - 26) =     -8.34225  eV     2   -->   2 G_2            
     e( 27 - 28) =     -7.03792  eV     2   -->   2 G_2            
     e( 29 - 30) =     -4.74162  eV     2   -->   2 G_2            
     e( 31 - 32) =     -4.40099  eV     2   -->   2 G_2            
     e( 33 - 34) =     -4.00747  eV     2   -->   2 G_2            
     e( 35 - 36) =     -3.05119  eV     2   -->   2 G_2            
     e( 37 - 38) =     -2.36379  eV     2   -->   2 G_2            
     e( 39 - 40) =     -2.00577  eV     2   -->   2 G_2            
     e( 41 - 42) =      0.84316  eV     2   -->   2 G_2            
     e( 43 - 44) =      1.06694  eV     2   -->   2 G_2            
     e( 45 - 46) =      1.76572  eV     2   -->   2 G_2            
     e( 47 - 48) =      2.00996  eV     2   -->   2 G_2            

 **************************************************************************

 **************************************************************************

                    xk=(   0.25000,   0.00000,   0.00000  )

     Band symmetry, C_1 (1)     double point group:

     e(  1 -  2) =    -22.41251  eV     2   -->   2 G_2            
     e(  3 -  4) =    -22.41172  eV     2   -->   2 G_2            
     e(  5 -  6) =    -22.40571  eV     2   -->   2 G_2            
     e(  7 -  8) =    -22.40259  eV     2   -->   2 G_2            
     e(  9 - 10) =    -22.38541  eV     2   -->   2 G_2            
     e( 11 - 12) =    -22.36397  eV     2   -->   2 G_2            
     e( 13 - 14) =    -22.34712  eV     2   -->   2 G_2            
     e( 15 - 16) =    -22.34335  eV     2   -->   2 G_2            
     e( 17 - 18) =    -22.33486  eV     2   -->   2 G_2            
     e( 19 - 20) =    -22.33201  eV     2   -->   2 G_2            
     e( 21 - 22) =    -14.32124  eV     2   -->   2 G_2            
     e( 23 - 24) =    -13.24798  eV     2   -->   2 G_2            
     e( 25 - 26) =     -8.41210  eV     2   -->   2 G_2            
     e( 27 - 28) =     -7.19504  eV     2   -->   2 G_2            
     e( 29 - 30) =     -4.68684  eV     2   -->   2 G_2            
     e( 31 - 32) =     -4.33709  eV     2   -->   2 G_2            
     e( 33 - 34) =     -3.93080  eV     2   -->   2 G_2            
     e( 35 - 36) =     -3.03969  eV     2   -->   2 G_2            
     e( 37 - 38) =     -2.23724  eV     2   -->   2 G_2            
     e( 39 - 40) =     -2.05444  eV     2   -->   2 G_2            
     e( 41 - 42) =      0.85605  eV     2   -->   2 G_2            
     e( 43 - 44) =      0.92177  eV     2   -->   2 G_2            
     e( 45 - 46) =      1.65938  eV     2   -->   2 G_2            
     e( 47 - 48) =      1.97475  eV     2   -->   2 G_2            

 **************************************************************************

 **************************************************************************

                    xk=(   0.27500,   0.00000,   0.00000  )

     Band symmetry, C_1 (1)     double point group:

     e(  1 -  2) =    -22.41313  eV     2   -->   2 G_2            
     e(  3 -  4) =    -22.41180  eV     2   -->   2 G_2            
     e(  5 -  6) =    -22.40559  eV     2   -->   2 G_2            
     e(  7 -  8) =    -22.40201  eV     2   -->   2 G_2            
     e(  9 - 10) =    -22.38405  eV     2   -->   2 G_2            
     e( 11 - 12) =    -22.36447  eV     2   -->   2 G_2            
     e( 13 - 14) =    -22.34689  eV     2   -->   2 G_2            
     e( 15 - 16) =    -22.34259  eV     2   -->   2 G_2            
     e( 17 - 18) =    -22.33566  eV     2   -->   2 G_2            
     e( 19 - 20) =    -22.33215  eV     2   -->   2 G_2            
     e( 21 - 22) =    -14.26277  eV     2   -->   2 G_2            
     e( 23 - 24) =    -13.26314  eV     2   -->   2 G_2            
     e( 25 - 26) =     -8.47461  eV     2   -->   2 G_2            
     e( 27 - 28) =     -7.35160  eV     2   -->   2 G_2            
     e( 29 - 30) =     -4.62590  eV     2   -->   2 G_2            
     e( 31 - 32) =     -4.27152  eV     2   -->   2 G_2            
     e( 33 - 34) =     -3.85236  eV     2   -->   2 G_2            
     e( 35 - 36) =     -3.03457  eV     2   -->   2 G_2            
     e( 37 - 38) =     -2.11383  eV     2   -->   2 G_2            
     e( 39 - 40) =     -2.10224  eV     2   -->   2 G_2            
     e( 41 - 42) =      0.65756  eV     2   -->   2 G_2            
     e( 43 - 44) =      1.00838  eV     2   -->   2 G_2            
     e( 45 - 46) =      1.55758  eV     2   -->   2 G_2            
     e( 47 - 48) =      1.89453  eV     2   -->   2 G_2            

 **************************************************************************

 **************************************************************************

                    xk=(   0.30000,   0.00000,   0.00000  )

     Band symmetry, C_1 (1)     double point group:

     e(  1 -  2) =    -22.41371  eV     2   -->   2 G_2            
     e(  3 -  4) =    -22.41216  eV     2   -->   2 G_2            
     e(  5 -  6) =    -22.40516  eV     2   -->   2 G_2            
     e(  7 -  8) =    -22.40149  eV     2   -->   2 G_2            
     e(  9 - 10) =    -22.38266  eV     2   -->   2 G_2            
     e( 11 - 12) =    -22.36503  eV     2   -->   2 G_2            
     e( 13 - 14) =    -22.34661  eV     2   -->   2 G_2            
     e( 15 - 16) =    -22.34180  eV     2   -->   2 G_2            
     e( 17 - 18) =    -22.33648  eV     2   -->   2 G_2            
     e( 19 - 20) =    -22.33232  eV     2   -->   2 G_2            
     e( 21 - 22) =    -14.20056  eV     2   -->   2 G_2            
     e( 23 - 24) =    -13.28322  eV     2   -->   2 G_2            
     e( 25 - 26) =     -8.52753  eV     2   -->   2 G_2            
     e( 27 - 28) =     -7.50547  eV     2   -->   2 G_2            
     e( 29 - 30) =     -4.55968  eV     2   -->   2 G_2            
     e( 31 - 32) =     -4.20550  eV     2   -->   2 G_2            
     e( 33 - 34) =     -3.77449  eV     2   -->   2 G_2            
     e( 35 - 36) =     -3.03627  eV     2   -->   2 G_2            
     e( 37 - 38) =     -2.14593  eV     2   -->   2 G_2            
     e( 39 - 40) =     -1.99823  eV     2   -->   2 G_2            
     e( 41 - 42) =      0.47677  eV     2   -->   2 G_2            
     e( 43 - 44) =      1.10238  eV     2   -->   2 G_2            
     e( 45 - 46) =      1.46495  eV     2   -->   2 G_2            
     e( 47 - 48) =      1.77571  eV     2   -->   2 G_2            

 **************************************************************************

 **************************************************************************

                    xk=(   0.32500,   0.00000,   0.00000  )

     Band symmetry, C_1 (1)     double point group:

     e(  1 -  2) =    -22.41426  eV     2   -->   2 G_2            
     e(  3 -  4) =    -22.41269  eV     2   -->   2 G_2            
     e(  5 -  6) =    -22.40455  eV     2   -->   2 G_2            
     e(  7 -  8) =    -22.40103  eV     2   -->   2 G_2            
     e(  9 - 10) =    -22.38126  eV     2   -->   2 G_2            
     e( 11 - 12) =    -22.36565  eV     2   -->   2 G_2            
     e( 13 - 14) =    -22.34630  eV     2   -->   2 G_2            
     e( 15 - 16) =    -22.34098  eV     2   -->   2 G_2            
     e( 17 - 18) =    -22.33732  eV     2   -->   2 G_2            
     e( 19 - 20) =    -22.33253  eV     2   -->   2 G_2            
     e( 21 - 22) =    -14.13516  eV     2   -->   2 G_2            
     e( 23 - 24) =    -13.30874  eV     2   -->   2 G_2            
     e( 25 - 26) =     -8.56892  eV     2   -->   2 G_2            
     e( 27 - 28) =     -7.65478  eV     2   -->   2 G_2            
     e( 29 - 30) =     -4.48915  eV     2   -->   2 G_2            
     e( 31 - 32) =     -4.14075  eV     2   -->   2 G_2            
     e( 33 - 34) =     -3.69971  eV     2   -->   2 G_2            
     e( 35 - 36) =     -3.04538  eV     2   -->   2 G_2            
     e( 37 - 38) =     -2.18157  eV     2   -->   2 G_2            
     e( 39 - 40) =     -1.89617  eV     2   -->   2 G_2            
     e( 41 - 42) =      0.32017  eV     2   -->   2 G_2            
     e( 43 - 44) =      1.20221  eV     2   -->   2 G_2            
     e( 45 - 46) =      1.38537  eV     2   -->   2 G_2            
     e( 47 - 48) =      1.62839  eV     2   -->   2 G_2            

 **************************************************************************

 **************************************************************************

                    xk=(   0.35000,   0.00000,   0.00000  )

     Band symmetry, C_1 (1)     double point group:

     e(  1 -  2) =    -22.41475  eV     2   -->   2 G_2            
     e(  3 -  4) =    -22.41330  eV     2   -->   2 G_2            
     e(  5 -  6) =    -22.40387  eV     2   -->   2 G_2            
     e(  7 -  8) =    -22.40065  eV     2   -->   2 G_2            
     e(  9 - 10) =    -22.37986  eV     2   -->   2 G_2            
     e( 11 - 12) =    -22.36635  eV     2   -->   2 G_2            
     e( 13 - 14) =    -22.34594  eV     2   -->   2 G_2            
     e( 15 - 16) =    -22.34016  eV     2   -->   2 G_2            
     e( 17 - 18) =    -22.33816  eV     2   -->   2 G_2            
     e( 19 - 20) =    -22.33279  eV     2   -->   2 G_2            
     e( 21 - 22) =    -14.06719  eV     2   -->   2 G_2            
     e( 23 - 24) =    -13.34011  eV     2   -->   2 G_2            
     e( 25 - 26) =     -8.59720  eV     2   -->   2 G_2            
     e( 27 - 28) =     -7.79786  eV     2   -->   2 G_2            
     e( 29 - 30) =     -4.41541  eV     2   -->   2 G_2            
     e( 31 - 32) =     -4.07970  eV     2   -->   2 G_2            
     e( 33 - 34) =     -3.63048  eV     2   -->   2 G_2            
     e( 35 - 36) =     -3.06238  eV     2   -->   2 G_2            
     e( 37 - 38) =     -2.20467  eV     2   -->   2 G_2            
     e( 39 - 40) =     -1.81468  eV     2   -->   2 G_2            
     e( 41 - 42) =      0.19572  eV     2   -->   2 G_2            
     e( 43 - 44) =      1.29889  eV     2   -->   2 G_2            
     e( 45 - 46) =      1.32194  eV     2   -->   2 G_2            
     e( 47 - 48) =      1.46991  eV     2   -->   2 G_2            

 **************************************************************************

 **************************************************************************

                    xk=(   0.37500,   0.00000,   0.00000  )

     Band symmetry, C_1 (1)     double point group:

     e(  1 -  2) =    -22.41516  eV     2   -->   2 G_2            
     e(  3 -  4) =    -22.41389  eV     2   -->   2 G_2            
     e(  5 -  6) =    -22.40317  eV     2   -->   2 G_2            
     e(  7 -  8) =    -22.40036  eV     2   -->   2 G_2            
     e(  9 - 10) =    -22.37847  eV     2   -->   2 G_2            
     e( 11 - 12) =    -22.36713  eV     2   -->   2 G_2            
     e( 13 - 14) =    -22.34553  eV     2   -->   2 G_2            
     e( 15 - 16) =    -22.33932  eV     2   -->   2 G_2            
     e( 17 - 18) =    -22.33899  eV     2   -->   2 G_2            
     e( 19 - 20) =    -22.33310  eV     2   -->   2 G_2            
     e( 21 - 22) =    -13.99733  eV     2   -->   2 G_2            
     e( 23 - 24) =    -13.37752  eV     2   -->   2 G_2            
     e( 25 - 26) =     -8.61116  eV     2   -->   2 G_2            
     e( 27 - 28) =     -7.93320  eV     2   -->   2 G_2            
     e( 29 - 30) =     -4.33977  eV     2   -->   2 G_2            
     e( 31 - 32) =     -4.02574  eV     2   -->   2 G_2            
     e( 33 - 34) =     -3.56843  eV     2   -->   2 G_2            
     e( 35 - 36) =     -3.08748  eV     2   -->   2 G_2            
     e( 37 - 38) =     -2.21080  eV     2   -->   2 G_2            
     e( 39 - 40) =     -1.76148  eV     2   -->   2 G_2            
     e( 41 - 42) =      0.11213  eV     2   -->   2 G_2            
     e( 43 - 44) =      1.25261  eV     2   -->   2 G_2            
     e( 45 - 46) =      1.27698  eV     2   -->   2 G_2            
     e( 47 - 48) =      1.44579  eV     2   -->   2 G_2            

 **************************************************************************

 **************************************************************************

                    xk=(   0.40000,   0.00000,   0.00000  )

     Band symmetry, C_1 (1)     double point group:

     e(  1 -  2) =    -22.41549  eV     2   -->   2 G_2            
     e(  3 -  4) =    -22.41444  eV     2   -->   2 G_2            
     e(  5 -  6) =    -22.40249  eV     2   -->   2 G_2            
     e(  7 -  8) =    -22.40019  eV     2   -->   2 G_2            
     e(  9 - 10) =    -22.37710  eV     2   -->   2 G_2            
     e( 11 - 12) =    -22.36797  eV     2   -->   2 G_2            
     e( 13 - 14) =    -22.34507  eV     2   -->   2 G_2            
     e( 15 - 16) =    -22.33980  eV     2   -->   2 G_2            
     e( 17 - 18) =    -22.33850  eV     2   -->   2 G_2            
     e( 19 - 20) =    -22.33347  eV     2   -->   2 G_2            
     e( 21 - 22) =    -13.92635  eV     2   -->   2 G_2            
     e( 23 - 24) =    -13.42098  eV     2   -->   2 G_2            
     e( 25 - 26) =     -8.60995  eV     2   -->   2 G_2            
     e( 27 - 28) =     -8.05942  eV     2   -->   2 G_2            
     e( 29 - 30) =     -4.26382  eV     2   -->   2 G_2            
     e( 31 - 32) =     -3.98337  eV     2   -->   2 G_2            
     e( 33 - 34) =     -3.51341  eV     2   -->   2 G_2            
     e( 35 - 36) =     -3.12050  eV     2   -->   2 G_2            
     e( 37 - 38) =     -2.19657  eV     2   -->   2 G_2            
     e( 39 - 40) =     -1.74272  eV     2   -->   2 G_2            
     e( 41 - 42) =      0.07670  eV     2   -->   2 G_2            
     e( 43 - 44) =      1.07513  eV     2   -->   2 G_2            
     e( 45 - 46) =      1.25200  eV     2   -->   2 G_2            
     e( 47 - 48) =      1.54057  eV     2   -->   2 G_2            

 **************************************************************************

 **************************************************************************

                    xk=(   0.42500,   0.00000,   0.00000  )

     Band symmetry, C_1 (1)     double point group:

     e(  1 -  2) =    -22.41574  eV     2   -->   2 G_2            
     e(  3 -  4) =    -22.41492  eV     2   -->   2 G_2            
     e(  5 -  6) =    -22.40187  eV     2   -->   2 G_2            
     e(  7 -  8) =    -22.40011  eV     2   -->   2 G_2            
     e(  9 - 10) =    -22.37577  eV     2   -->   2 G_2            
     e( 11 - 12) =    -22.36889  eV     2   -->   2 G_2            
     e( 13 - 14) =    -22.34458  eV     2   -->   2 G_2            
     e( 15 - 16) =    -22.34059  eV     2   -->   2 G_2            
     e( 17 - 18) =    -22.33771  eV     2   -->   2 G_2            
     e( 19 - 20) =    -22.33390  eV     2   -->   2 G_2            
     e( 21 - 22) =    -13.85506  eV     2   -->   2 G_2            
     e( 23 - 24) =    -13.47027  eV     2   -->   2 G_2            
     e( 25 - 26) =     -8.59310  eV     2   -->   2 G_2            
     e( 27 - 28) =     -8.17524  eV     2   -->   2 G_2            
     e( 29 - 30) =     -4.18953  eV     2   -->   2 G_2            
     e( 31 - 32) =     -3.95757  eV     2   -->   2 G_2            
     e( 33 - 34) =     -3.46303  eV     2   -->   2 G_2            
     e( 35 - 36) =     -3.16076  eV     2   -->   2 G_2            
     e( 37 - 38) =     -2.16083  eV     2   -->   2 G_2            
     e( 39 - 40) =     -1.75974  eV     2   -->   2 G_2            
     e( 41 - 42) =      0.09198  eV     2   -->   2 G_2            
     e( 43 - 44) =      0.89086  eV     2   -->   2 G_2            
     e( 45 - 46) =      1.24780  eV     2   -->   2 G_2            
     e( 47 - 48) =      1.57823  eV     2   -->   2 G_2            

 **************************************************************************

 **************************************************************************

                    xk=(   0.45000,   0.00000,   0.00000  )

     Band symmetry, C_1 (1)     double point group:

     e(  1 -  2) =    -22.41587  eV     2   -->   2 G_2            
     e(  3 -  4) =    -22.41532  eV     2   -->   2 G_2            
     e(  5 -  6) =    -22.40133  eV     2   -->   2 G_2            
     e(  7 -  8) =    -22.40014  eV     2   -->   2 G_2            
     e(  9 - 10) =    -22.37448  eV     2   -->   2 G_2            
     e( 11 - 12) =    -22.36988  eV     2   -->   2 G_2            
     e( 13 - 14) =    -22.34401  eV     2   -->   2 G_2            
     e( 15 - 16) =    -22.34135  eV     2   -->   2 G_2            
     e( 17 - 18) =    -22.33695  eV     2   -->   2 G_2            
     e( 19 - 20) =    -22.33440  eV     2   -->   2 G_2            
     e( 21 - 22) =    -13.78433  eV     2   -->   2 G_2            
     e( 23 - 24) =    -13.52498  eV     2   -->   2 G_2            
     e( 25 - 26) =     -8.56047  eV     2   -->   2 G_2            
     e( 27 - 28) =     -8.27946  eV     2   -->   2 G_2            
     e( 29 - 30) =     -4.11939  eV     2   -->   2 G_2            
     e( 31 - 32) =     -3.95235  eV     2   -->   2 G_2            
     e( 33 - 34) =     -3.41372  eV     2   -->   2 G_2            
     e( 35 - 36) =     -3.20706  eV     2   -->   2 G_2            
     e( 37 - 38) =     -2.10531  eV     2   -->   2 G_2            
     e( 39 - 40) =     -1.80748  eV     2   -->   2 G_2            
     e( 41 - 42) =      0.15435  eV     2   -->   2 G_2            
     e( 43 - 44) =      0.71107  eV     2   -->   2 G_2            
     e( 45 - 46) =      1.26443  eV     2   -->   2 G_2            
     e( 47 - 48) =      1.51273  eV     2   -->   2 G_2            

 **************************************************************************

 **************************************************************************

                    xk=(   0.47500,   0.00000,   0.00000  )

     Band symmetry, C_1 (1)     double point group:

     e(  1 -  2) =    -22.41590  eV     2   -->   2 G_2            
     e(  3 -  4) =    -22.41562  eV     2   -->   2 G_2            
     e(  5 -  6) =    -22.40088  eV     2   -->   2 G_2            
     e(  7 -  8) =    -22.40027  eV     2   -->   2 G_2            
     e(  9 - 10) =    -22.37324  eV     2   -->   2 G_2            
     e( 11 - 12) =    -22.37093  eV     2   -->   2 G_2            
     e( 13 - 14) =    -22.34341  eV     2   -->   2 G_2            
     e( 15 - 16) =    -22.34208  eV     2   -->   2 G_2            
     e( 17 - 18) =    -22.33623  eV     2   -->   2 G_2            
     e( 19 - 20) =    -22.33495  eV     2   -->   2 G_2            
     e( 21 - 22) =    -13.71505  eV     2   -->   2 G_2            
     e( 23 - 24) =    -13.58452  eV     2   -->   2 G_2            
     e( 25 - 26) =     -8.51225  eV     2   -->   2 G_2            
     e( 27 - 28) =     -8.37099  eV     2   -->   2 G_2            
     e( 29 - 30) =     -4.05656  eV     2   -->   2 G_2            
     e( 31 - 32) =     -3.96883  eV     2   -->   2 G_2            
     e( 33 - 34) =     -3.36291  eV     2   -->   2 G_2            
     e( 35 - 36) =     -3.25765  eV     2   -->   2 G_2            
     e( 37 - 38) =     -2.03457  eV     2   -->   2 G_2            
     e( 39 - 40) =     -1.87633  eV     2   -->   2 G_2            
     e( 41 - 42) =      0.25587  eV     2   -->   2 G_2            
     e( 43 - 44) =      0.54146  eV     2   -->   2 G_2            
     e( 45 - 46) =      1.30133  eV     2   -->   2 G_2            
     e( 47 - 48) =      1.42969  eV     2   -->   2 G_2            

 **************************************************************************

 **************************************************************************

                    xk=(   0.50000,   0.00000,   0.00000  )

     zone border point and non-symmorphic group 
     symmetry decomposition not available

 **************************************************************************

 **************************************************************************

                    xk=(   0.50000,   0.02477,   0.00000  )

     zone border point and non-symmorphic group 
     symmetry decomposition not available

 **************************************************************************

 **************************************************************************

                    xk=(   0.50000,   0.04954,   0.00000  )

     zone border point and non-symmorphic group 
     symmetry decomposition not available

 **************************************************************************

 **************************************************************************

                    xk=(   0.50000,   0.07431,   0.00000  )

     zone border point and non-symmorphic group 
     symmetry decomposition not available

 **************************************************************************

 **************************************************************************

                    xk=(   0.50000,   0.09908,   0.00000  )

     zone border point and non-symmorphic group 
     symmetry decomposition not available

 **************************************************************************

 **************************************************************************

                    xk=(   0.50000,   0.12385,   0.00000  )

     zone border point and non-symmorphic group 
     symmetry decomposition not available

 **************************************************************************

 **************************************************************************

                    xk=(   0.50000,   0.14862,   0.00000  )

     zone border point and non-symmorphic group 
     symmetry decomposition not available

 **************************************************************************

 **************************************************************************

                    xk=(   0.50000,   0.17339,   0.00000  )

     zone border point and non-symmorphic group 
     symmetry decomposition not available

 **************************************************************************

 **************************************************************************

                    xk=(   0.50000,   0.19816,   0.00000  )

     zone border point and non-symmorphic group 
     symmetry decomposition not available

 **************************************************************************

 **************************************************************************

                    xk=(   0.50000,   0.22293,   0.00000  )

     zone border point and non-symmorphic group 
     symmetry decomposition not available

 **************************************************************************

 **************************************************************************

                    xk=(   0.50000,   0.24770,   0.00000  )

     zone border point and non-symmorphic group 
     symmetry decomposition not available

 **************************************************************************

 **************************************************************************

                    xk=(   0.50000,   0.27247,   0.00000  )

     zone border point and non-symmorphic group 
     symmetry decomposition not available

 **************************************************************************

 **************************************************************************

                    xk=(   0.50000,   0.29724,   0.00000  )

     zone border point and non-symmorphic group 
     symmetry decomposition not available

 **************************************************************************

 **************************************************************************

                    xk=(   0.50000,   0.32201,   0.00000  )

     zone border point and non-symmorphic group 
     symmetry decomposition not available

 **************************************************************************

 **************************************************************************

                    xk=(   0.50000,   0.34678,   0.00000  )

     zone border point and non-symmorphic group 
     symmetry decomposition not available

 **************************************************************************

 **************************************************************************

                    xk=(   0.50000,   0.37155,   0.00000  )

     zone border point and non-symmorphic group 
     symmetry decomposition not available

 **************************************************************************

 **************************************************************************

                    xk=(   0.50000,   0.39633,   0.00000  )

     zone border point and non-symmorphic group 
     symmetry decomposition not available

 **************************************************************************

 **************************************************************************

                    xk=(   0.50000,   0.42110,   0.00000  )

     zone border point and non-symmorphic group 
     symmetry decomposition not available

 **************************************************************************

 **************************************************************************

                    xk=(   0.50000,   0.44587,   0.00000  )

     zone border point and non-symmorphic group 
     symmetry decomposition not available

 **************************************************************************

 **************************************************************************

                    xk=(   0.50000,   0.47064,   0.00000  )

     zone border point and non-symmorphic group 
     symmetry decomposition not available

 **************************************************************************

 **************************************************************************

                    xk=(   0.50000,   0.49541,   0.00000  )

     zone border point and non-symmorphic group 
     symmetry decomposition not available

 **************************************************************************

 **************************************************************************

                    xk=(   0.47500,   0.49541,   0.00000  )

     double point group C_1 (1)    
     there are  2 classes and  1 irreducible representations
     the character table:

       E     -E   
                  
G_2    1.00 -1.00

     the symmetry operations in each class and the name of the first element:

     E             1
                                                                 
     -E           -1
                                                                 

     Band symmetry, C_1 (1)     double point group:

     e(  1 -  4) =    -22.42807  eV     4   -->   4 G_2            
     e(  5 -  8) =    -22.39125  eV     4   -->   4 G_2            
     e(  9 - 12) =    -22.37131  eV     4   -->   4 G_2            
     e( 13 - 16) =    -22.34478  eV     4   -->   4 G_2            
     e( 17 - 20) =    -22.33152  eV     4   -->   4 G_2            
     e( 21 - 24) =    -13.39687  eV     4   -->   4 G_2            
     e( 25 - 28) =     -7.73786  eV     4   -->   4 G_2            
     e( 29 - 32) =     -5.73846  eV     4   -->   4 G_2            
     e( 33 - 36) =     -4.59528  eV     4   -->   4 G_2            
     e( 37 - 40) =     -2.90314  eV     4   -->   4 G_2            
     e( 41 - 44) =      2.22838  eV     4   -->   4 G_2            
     e( 45 - 48) =      2.92915  eV     4   -->   4 G_2            

 **************************************************************************

 **************************************************************************

                    xk=(   0.45000,   0.49541,   0.00000  )

     Band symmetry, C_1 (1)     double point group:

     e(  1 -  4) =    -22.42779  eV     4   -->   4 G_2            
     e(  5 -  8) =    -22.39147  eV     4   -->   4 G_2            
     e(  9 - 12) =    -22.37129  eV     4   -->   4 G_2            
     e( 13 - 16) =    -22.34478  eV     4   -->   4 G_2            
     e( 17 - 20) =    -22.33160  eV     4   -->   4 G_2            
     e( 21 - 24) =    -13.40370  eV     4   -->   4 G_2            
     e( 25 - 28) =     -7.74359  eV     4   -->   4 G_2            
     e( 29 - 32) =     -5.73360  eV     4   -->   4 G_2            
     e( 33 - 36) =     -4.54853  eV     4   -->   4 G_2            
     e( 37 - 40) =     -2.90141  eV     4   -->   4 G_2            
     e( 41 - 44) =      2.20591  eV     4   -->   4 G_2            
     e( 45 - 48) =      2.89637  eV     4   -->   4 G_2            

 **************************************************************************

 **************************************************************************

                    xk=(   0.42500,   0.49541,   0.00000  )

     Band symmetry, C_1 (1)     double point group:

     e(  1 -  4) =    -22.42732  eV     4   -->   4 G_2            
     e(  5 -  8) =    -22.39183  eV     4   -->   4 G_2            
     e(  9 - 12) =    -22.37128  eV     4   -->   4 G_2            
     e( 13 - 16) =    -22.34478  eV     4   -->   4 G_2            
     e( 17 - 20) =    -22.33174  eV     4   -->   4 G_2            
     e( 21 - 24) =    -13.41483  eV     4   -->   4 G_2            
     e( 25 - 28) =     -7.75367  eV     4   -->   4 G_2            
     e( 29 - 32) =     -5.72141  eV     4   -->   4 G_2            
     e( 33 - 36) =     -4.47549  eV     4   -->   4 G_2            
     e( 37 - 40) =     -2.89751  eV     4   -->   4 G_2            
     e( 41 - 44) =      2.16500  eV     4   -->   4 G_2            
     e( 45 - 48) =      2.84807  eV     4   -->   4 G_2            

 **************************************************************************

 **************************************************************************

                    xk=(   0.40000,   0.49541,   0.00000  )

     Band symmetry, C_1 (1)     double point group:

     e(  1 -  4) =    -22.42667  eV     4   -->   4 G_2            
     e(  5 -  8) =    -22.39232  eV     4   -->   4 G_2            
     e(  9 - 12) =    -22.37127  eV     4   -->   4 G_2            
     e( 13 - 16) =    -22.34478  eV     4   -->   4 G_2            
     e( 17 - 20) =    -22.33192  eV     4   -->   4 G_2            
     e( 21 - 24) =    -13.42990  eV     4   -->   4 G_2            
     e( 25 - 28) =     -7.76865  eV     4   -->   4 G_2            
     e( 29 - 32) =     -5.69747  eV     4   -->   4 G_2            
     e( 33 - 36) =     -4.38214  eV     4   -->   4 G_2            
     e( 37 - 40) =     -2.88983  eV     4   -->   4 G_2            
     e( 41 - 44) =      2.10150  eV     4   -->   4 G_2            
     e( 45 - 48) =      2.79005  eV     4   -->   4 G_2            

 **************************************************************************

 **************************************************************************

                    xk=(   0.37500,   0.49541,   0.00000  )

     Band symmetry, C_1 (1)     double point group:

     e(  1 -  4) =    -22.42586  eV     4   -->   4 G_2            
     e(  5 -  8) =    -22.39295  eV     4   -->   4 G_2            
     e(  9 - 12) =    -22.37126  eV     4   -->   4 G_2            
     e( 13 - 16) =    -22.34476  eV     4   -->   4 G_2            
     e( 17 - 20) =    -22.33215  eV     4   -->   4 G_2            
     e( 21 - 24) =    -13.44844  eV     4   -->   4 G_2            
     e( 25 - 28) =     -7.78894  eV     4   -->   4 G_2            
     e( 29 - 32) =     -5.65779  eV     4   -->   4 G_2            
     e( 33 - 36) =     -4.27518  eV     4   -->   4 G_2            
     e( 37 - 40) =     -2.87595  eV     4   -->   4 G_2            
     e( 41 - 44) =      2.01158  eV     4   -->   4 G_2            
     e( 45 - 48) =      2.72605  eV     4   -->   4 G_2            

 **************************************************************************

 **************************************************************************

                    xk=(   0.35000,   0.49541,   0.00000  )

     Band symmetry, C_1 (1)     double point group:

     e(  1 -  4) =    -22.42490  eV     4   -->   4 G_2            
     e(  5 -  8) =    -22.39368  eV     4   -->   4 G_2            
     e(  9 - 12) =    -22.37127  eV     4   -->   4 G_2            
     e( 13 - 16) =    -22.34471  eV     4   -->   4 G_2            
     e( 17 - 20) =    -22.33241  eV     4   -->   4 G_2            
     e( 21 - 24) =    -13.46987  eV     4   -->   4 G_2            
     e( 25 - 28) =     -7.81458  eV     4   -->   4 G_2            
     e( 29 - 32) =     -5.59955  eV     4   -->   4 G_2            
     e( 33 - 36) =     -4.16171  eV     4   -->   4 G_2            
     e( 37 - 40) =     -2.85253  eV     4   -->   4 G_2            
     e( 41 - 44) =      1.89301  eV     4   -->   4 G_2            
     e( 45 - 48) =      2.65718  eV     4   -->   4 G_2            

 **************************************************************************

 **************************************************************************

                    xk=(   0.32500,   0.49541,   0.00000  )

     Band symmetry, C_1 (1)     double point group:

     e(  1 -  4) =    -22.42380  eV     4   -->   4 G_2            
     e(  5 -  8) =    -22.39452  eV     4   -->   4 G_2            
     e(  9 - 12) =    -22.37129  eV     4   -->   4 G_2            
     e( 13 - 16) =    -22.34463  eV     4   -->   4 G_2            
     e( 17 - 20) =    -22.33272  eV     4   -->   4 G_2            
     e( 21 - 24) =    -13.49357  eV     4   -->   4 G_2            
     e( 25 - 28) =     -7.84512  eV     4   -->   4 G_2            
     e( 29 - 32) =     -5.52126  eV     4   -->   4 G_2            
     e( 33 - 36) =     -4.04916  eV     4   -->   4 G_2            
     e( 37 - 40) =     -2.81540  eV     4   -->   4 G_2            
     e( 41 - 44) =      1.74570  eV     4   -->   4 G_2            
     e( 45 - 48) =      2.58312  eV     4   -->   4 G_2            

 **************************************************************************

 **************************************************************************

                    xk=(   0.30000,   0.49541,   0.00000  )

     Band symmetry, C_1 (1)     double point group:

     e(  1 -  4) =    -22.42262  eV     4   -->   4 G_2            
     e(  5 -  8) =    -22.39543  eV     4   -->   4 G_2            
     e(  9 - 12) =    -22.37133  eV     4   -->   4 G_2            
     e( 13 - 16) =    -22.34452  eV     4   -->   4 G_2            
     e( 17 - 20) =    -22.33306  eV     4   -->   4 G_2            
     e( 21 - 24) =    -13.51885  eV     4   -->   4 G_2            
     e( 25 - 28) =     -7.87972  eV     4   -->   4 G_2            
     e( 29 - 32) =     -5.42271  eV     4   -->   4 G_2            
     e( 33 - 36) =     -3.94491  eV     4   -->   4 G_2            
     e( 37 - 40) =     -2.76002  eV     4   -->   4 G_2            
     e( 41 - 44) =      1.57170  eV     4   -->   4 G_2            
     e( 45 - 48) =      2.50377  eV     4   -->   4 G_2            

 **************************************************************************

 **************************************************************************

                    xk=(   0.27500,   0.49541,   0.00000  )

     Band symmetry, C_1 (1)     double point group:

     e(  1 -  4) =    -22.42134  eV     4   -->   4 G_2            
     e(  5 -  8) =    -22.39641  eV     4   -->   4 G_2            
     e(  9 - 12) =    -22.37140  eV     4   -->   4 G_2            
     e( 13 - 16) =    -22.34436  eV     4   -->   4 G_2            
     e( 17 - 20) =    -22.33344  eV     4   -->   4 G_2            
     e( 21 - 24) =    -13.54504  eV     4   -->   4 G_2            
     e( 25 - 28) =     -7.91719  eV     4   -->   4 G_2            
     e( 29 - 32) =     -5.30468  eV     4   -->   4 G_2            
     e( 33 - 36) =     -3.85531  eV     4   -->   4 G_2            
     e( 37 - 40) =     -2.68283  eV     4   -->   4 G_2            
     e( 41 - 44) =      1.37506  eV     4   -->   4 G_2            
     e( 45 - 48) =      2.41994  eV     4   -->   4 G_2            

 **************************************************************************

 **************************************************************************

                    xk=(   0.25000,   0.49541,   0.00000  )

     Band symmetry, C_1 (1)     double point group:

     e(  1 -  4) =    -22.42002  eV     4   -->   4 G_2            
     e(  5 -  8) =    -22.39743  eV     4   -->   4 G_2            
     e(  9 - 12) =    -22.37151  eV     4   -->   4 G_2            
     e( 13 - 16) =    -22.34415  eV     4   -->   4 G_2            
     e( 17 - 20) =    -22.33384  eV     4   -->   4 G_2            
     e( 21 - 24) =    -13.57146  eV     4   -->   4 G_2            
     e( 25 - 28) =     -7.95620  eV     4   -->   4 G_2            
     e( 29 - 32) =     -5.16872  eV     4   -->   4 G_2            
     e( 33 - 36) =     -3.78415  eV     4   -->   4 G_2            
     e( 37 - 40) =     -2.58305  eV     4   -->   4 G_2            
     e( 41 - 44) =      1.16175  eV     4   -->   4 G_2            
     e( 45 - 48) =      2.33286  eV     4   -->   4 G_2            

 **************************************************************************

 **************************************************************************

                    xk=(   0.22500,   0.49541,   0.00000  )

     Band symmetry, C_1 (1)     double point group:

     e(  1 -  4) =    -22.41868  eV     4   -->   4 G_2            
     e(  5 -  8) =    -22.39847  eV     4   -->   4 G_2            
     e(  9 - 12) =    -22.37164  eV     4   -->   4 G_2            
     e( 13 - 16) =    -22.34390  eV     4   -->   4 G_2            
     e( 17 - 20) =    -22.33426  eV     4   -->   4 G_2            
     e( 21 - 24) =    -13.59746  eV     4   -->   4 G_2            
     e( 25 - 28) =     -7.99544  eV     4   -->   4 G_2            
     e( 29 - 32) =     -5.01694  eV     4   -->   4 G_2            
     e( 33 - 36) =     -3.73181  eV     4   -->   4 G_2            
     e( 37 - 40) =     -2.46398  eV     4   -->   4 G_2            
     e( 41 - 44) =      0.93941  eV     4   -->   4 G_2            
     e( 45 - 48) =      2.24312  eV     4   -->   4 G_2            

 **************************************************************************

 **************************************************************************

                    xk=(   0.20000,   0.49541,   0.00000  )

     Band symmetry, C_1 (1)     double point group:

     e(  1 -  4) =    -22.41733  eV     4   -->   4 G_2            
     e(  5 -  8) =    -22.39952  eV     4   -->   4 G_2            
     e(  9 - 12) =    -22.37179  eV     4   -->   4 G_2            
     e( 13 - 16) =    -22.34361  eV     4   -->   4 G_2            
     e( 17 - 20) =    -22.33470  eV     4   -->   4 G_2            
     e( 21 - 24) =    -13.62243  eV     4   -->   4 G_2            
     e( 25 - 28) =     -8.03363  eV     4   -->   4 G_2            
     e( 29 - 32) =     -4.85196  eV     4   -->   4 G_2            
     e( 33 - 36) =     -3.69581  eV     4   -->   4 G_2            
     e( 37 - 40) =     -2.33302  eV     4   -->   4 G_2            
     e( 41 - 44) =      0.71727  eV     4   -->   4 G_2            
     e( 45 - 48) =      2.14981  eV     4   -->   4 G_2            

 **************************************************************************

 **************************************************************************

                    xk=(   0.17500,   0.49541,   0.00000  )

     Band symmetry, C_1 (1)     double point group:

     e(  1 -  4) =    -22.41602  eV     4   -->   4 G_2            
     e(  5 -  8) =    -22.40055  eV     4   -->   4 G_2            
     e(  9 - 12) =    -22.37196  eV     4   -->   4 G_2            
     e( 13 - 16) =    -22.34327  eV     4   -->   4 G_2            
     e( 17 - 20) =    -22.33515  eV     4   -->   4 G_2            
     e( 21 - 24) =    -13.64582  eV     4   -->   4 G_2            
     e( 25 - 28) =     -8.06968  eV     4   -->   4 G_2            
     e( 29 - 32) =     -4.67701  eV     4   -->   4 G_2            
     e( 33 - 36) =     -3.67230  eV     4   -->   4 G_2            
     e( 37 - 40) =     -2.20080  eV     4   -->   4 G_2            
     e( 41 - 44) =      0.50635  eV     4   -->   4 G_2            
     e( 45 - 48) =      2.04995  eV     4   -->   4 G_2            

 **************************************************************************

 **************************************************************************

                    xk=(   0.15000,   0.49541,   0.00000  )

     Band symmetry, C_1 (1)     double point group:

     e(  1 -  4) =    -22.41476  eV     4   -->   4 G_2            
     e(  5 -  8) =    -22.40154  eV     4   -->   4 G_2            
     e(  9 - 12) =    -22.37215  eV     4   -->   4 G_2            
     e( 13 - 16) =    -22.34290  eV     4   -->   4 G_2            
     e( 17 - 20) =    -22.33562  eV     4   -->   4 G_2            
     e( 21 - 24) =    -13.66712  eV     4   -->   4 G_2            
     e( 25 - 28) =     -8.10264  eV     4   -->   4 G_2            
     e( 29 - 32) =     -4.49613  eV     4   -->   4 G_2            
     e( 33 - 36) =     -3.65728  eV     4   -->   4 G_2            
     e( 37 - 40) =     -2.08052  eV     4   -->   4 G_2            
     e( 41 - 44) =      0.31982  eV     4   -->   4 G_2            
     e( 45 - 48) =      1.93877  eV     4   -->   4 G_2            

 **************************************************************************

 **************************************************************************

                    xk=(   0.12500,   0.49541,   0.00000  )

     Band symmetry, C_1 (1)     double point group:

     e(  1 -  4) =    -22.41358  eV     4   -->   4 G_2            
     e(  5 -  8) =    -22.40246  eV     4   -->   4 G_2            
     e(  9 - 12) =    -22.37232  eV     4   -->   4 G_2            
     e( 13 - 16) =    -22.34250  eV     4   -->   4 G_2            
     e( 17 - 20) =    -22.33607  eV     4   -->   4 G_2            
     e( 21 - 24) =    -13.68589  eV     4   -->   4 G_2            
     e( 25 - 28) =     -8.13173  eV     4   -->   4 G_2            
     e( 29 - 32) =     -4.31479  eV     4   -->   4 G_2            
     e( 33 - 36) =     -3.64707  eV     4   -->   4 G_2            
     e( 37 - 40) =     -1.98699  eV     4   -->   4 G_2            
     e( 41 - 44) =      0.17265  eV     4   -->   4 G_2            
     e( 45 - 48) =      1.81196  eV     4   -->   4 G_2            

 **************************************************************************

 **************************************************************************

                    xk=(   0.10000,   0.49541,   0.00000  )

     Band symmetry, C_1 (1)     double point group:

     e(  1 -  4) =    -22.41252  eV     4   -->   4 G_2            
     e(  5 -  8) =    -22.40332  eV     4   -->   4 G_2            
     e(  9 - 12) =    -22.37250  eV     4   -->   4 G_2            
     e( 13 - 16) =    -22.34210  eV     4   -->   4 G_2            
     e( 17 - 20) =    -22.33652  eV     4   -->   4 G_2            
     e( 21 - 24) =    -13.70175  eV     4   -->   4 G_2            
     e( 25 - 28) =     -8.15632  eV     4   -->   4 G_2            
     e( 29 - 32) =     -4.14081  eV     4   -->   4 G_2            
     e( 33 - 36) =     -3.63808  eV     4   -->   4 G_2            
     e( 37 - 40) =     -1.93331  eV     4   -->   4 G_2            
     e( 41 - 44) =      0.07831  eV     4   -->   4 G_2            
     e( 45 - 48) =      1.67041  eV     4   -->   4 G_2            

 **************************************************************************

 **************************************************************************

                    xk=(   0.07500,   0.49541,   0.00000  )

     Band symmetry, C_1 (1)     double point group:

     e(  1 -  4) =    -22.41159  eV     4   -->   4 G_2            
     e(  5 -  8) =    -22.40407  eV     4   -->   4 G_2            
     e(  9 - 12) =    -22.37264  eV     4   -->   4 G_2            
     e( 13 - 16) =    -22.34172  eV     4   -->   4 G_2            
     e( 17 - 20) =    -22.33694  eV     4   -->   4 G_2            
     e( 21 - 24) =    -13.71441  eV     4   -->   4 G_2            
     e( 25 - 28) =     -8.17592  eV     4   -->   4 G_2            
     e( 29 - 32) =     -3.98614  eV     4   -->   4 G_2            
     e( 33 - 36) =     -3.62599  eV     4   -->   4 G_2            
     e( 37 - 40) =     -1.92362  eV     4   -->   4 G_2            
     e( 41 - 44) =      0.04137  eV     4   -->   4 G_2            
     e( 45 - 48) =      1.52359  eV     4   -->   4 G_2            

 **************************************************************************

 **************************************************************************

                    xk=(   0.05000,   0.49541,   0.00000  )

     Band symmetry, C_1 (1)     double point group:

     e(  1 -  4) =    -22.41084  eV     4   -->   4 G_2            
     e(  5 -  8) =    -22.40469  eV     4   -->   4 G_2            
     e(  9 - 12) =    -22.37276  eV     4   -->   4 G_2            
     e( 13 - 16) =    -22.34139  eV     4   -->   4 G_2            
     e( 17 - 20) =    -22.33729  eV     4   -->   4 G_2            
     e( 21 - 24) =    -13.72363  eV     4   -->   4 G_2            
     e( 25 - 28) =     -8.19017  eV     4   -->   4 G_2            
     e( 29 - 32) =     -3.86805  eV     4   -->   4 G_2            
     e( 33 - 36) =     -3.60549  eV     4   -->   4 G_2            
     e( 37 - 40) =     -1.94654  eV     4   -->   4 G_2            
     e( 41 - 44) =      0.05005  eV     4   -->   4 G_2            
     e( 45 - 48) =      1.38907  eV     4   -->   4 G_2            

 **************************************************************************

 **************************************************************************

                    xk=(   0.02500,   0.49541,   0.00000  )

     Band symmetry, C_1 (1)     double point group:

     e(  1 -  4) =    -22.41034  eV     4   -->   4 G_2            
     e(  5 -  8) =    -22.40511  eV     4   -->   4 G_2            
     e(  9 - 12) =    -22.37283  eV     4   -->   4 G_2            
     e( 13 - 16) =    -22.34114  eV     4   -->   4 G_2            
     e( 17 - 20) =    -22.33755  eV     4   -->   4 G_2            
     e( 21 - 24) =    -13.72922  eV     4   -->   4 G_2            
     e( 25 - 28) =     -8.19882  eV     4   -->   4 G_2            
     e( 29 - 32) =     -3.80131  eV     4   -->   4 G_2            
     e( 33 - 36) =     -3.57796  eV     4   -->   4 G_2            
     e( 37 - 40) =     -1.97764  eV     4   -->   4 G_2            
     e( 41 - 44) =      0.07699  eV     4   -->   4 G_2            
     e( 45 - 48) =      1.29080  eV     4   -->   4 G_2            

 **************************************************************************

 **************************************************************************

                    xk=(   0.00000,   0.49541,   0.00000  )

     double point group C_s (m)    
     there are  4 classes and  2 irreducible representations
     the character table:

       E     -E    s     -s   
                              
G_3    1.00 -1.00  0.00  0.00
G_4    1.00 -1.00  0.00  0.00

     imaginary part

       E     -E    s     -s   
                              
G_3    0.00  0.00  1.00 -1.00
G_4    0.00  0.00 -1.00  1.00

     the symmetry operations in each class and the name of the first element:

     E             1
                                                                 
     -E           -1
                                                                 
     s             2
                                                                 
     -s           -2
                                                                 

     Band symmetry, C_s (m)     double point group:

     e(  1 -  4) =    -22.41015  eV     4   -->   2 G_3            
     e(  1 -  4) =    -22.41015  eV     4   -->   2 G_4            
     e(  5 -  8) =    -22.40527  eV     4   -->   2 G_3            
     e(  5 -  8) =    -22.40527  eV     4   -->   2 G_4            
     e(  9 - 12) =    -22.37285  eV     4   -->   2 G_3            
     e(  9 - 12) =    -22.37285  eV     4   -->   2 G_4            
     e( 13 - 16) =    -22.34105  eV     4   -->   2 G_3            
     e( 13 - 16) =    -22.34105  eV     4   -->   2 G_4            
     e( 17 - 20) =    -22.33764  eV     4   -->   2 G_3            
     e( 17 - 20) =    -22.33764  eV     4   -->   2 G_4            
     e( 21 - 24) =    -13.73110  eV     4   -->   2 G_3            
     e( 21 - 24) =    -13.73110  eV     4   -->   2 G_4            
     e( 25 - 28) =     -8.20171  eV     4   -->   2 G_3            
     e( 25 - 28) =     -8.20171  eV     4   -->   2 G_4            
     e( 29 - 32) =     -3.78171  eV     4   -->   2 G_3            
     e( 29 - 32) =     -3.78171  eV     4   -->   2 G_4            
     e( 33 - 36) =     -3.56372  eV     4   -->   2 G_3            
     e( 33 - 36) =     -3.56372  eV     4   -->   2 G_4            
     e( 37 - 40) =     -1.99163  eV     4   -->   2 G_3            
     e( 37 - 40) =     -1.99163  eV     4   -->   2 G_4            
     e( 41 - 44) =      0.09087  eV     4   -->   2 G_3            
     e( 41 - 44) =      0.09087  eV     4   -->   2 G_4            
     e( 45 - 48) =      1.25403  eV     4   -->   2 G_3            
     e( 45 - 48) =      1.25403  eV     4   -->   2 G_4            

 **************************************************************************

 **************************************************************************

                    xk=(   0.00000,   0.47064,   0.00000  )

     Band symmetry, C_s (m)     double point group:

     e(  1 -  2) =    -22.41046  eV     2   --> G_3            
     e(  1 -  2) =    -22.41046  eV     2   --> G_4            
     e(  3 -  4) =    -22.40974  eV     2   --> G_3            
     e(  3 -  4) =    -22.40974  eV     2   --> G_4            
     e(  5 -  6) =    -22.40580  eV     2   --> G_3            
     e(  5 -  6) =    -22.40580  eV     2   --> G_4            
     e(  7 -  8) =    -22.40479  eV     2   --> G_3            
     e(  7 -  8) =    -22.40479  eV     2   --> G_4            
     e(  9 - 10) =    -22.37404  eV     2   --> G_3            
     e(  9 - 10) =    -22.37404  eV     2   --> G_4            
     e( 11 - 12) =    -22.37171  eV     2   --> G_3            
     e( 11 - 12) =    -22.37171  eV     2   --> G_4            
     e( 13 - 14) =    -22.34168  eV     2   --> G_3            
     e( 13 - 14) =    -22.34168  eV     2   --> G_4            
     e( 15 - 16) =    -22.34039  eV     2   --> G_3            
     e( 15 - 16) =    -22.34039  eV     2   --> G_4            
     e( 17 - 18) =    -22.33831  eV     2   --> G_3            
     e( 17 - 18) =    -22.33831  eV     2   --> G_4            
     e( 19 - 20) =    -22.33696  eV     2   --> G_3            
     e( 19 - 20) =    -22.33696  eV     2   --> G_4            
     e( 21 - 22) =    -13.79430  eV     2   --> G_3            
     e( 21 - 22) =    -13.79430  eV     2   --> G_4            
     e( 23 - 24) =    -13.67009  eV     2   --> G_3            
     e( 23 - 24) =    -13.67009  eV     2   --> G_4            
     e( 25 - 26) =     -8.26197  eV     2   --> G_3            
     e( 25 - 26) =     -8.26197  eV     2   --> G_4            
     e( 27 - 28) =     -8.12940  eV     2   --> G_3            
     e( 27 - 28) =     -8.12940  eV     2   --> G_4            
     e( 29 - 30) =     -3.85621  eV     2   --> G_3            
     e( 29 - 30) =     -3.85621  eV     2   --> G_4            
     e( 31 - 32) =     -3.71633  eV     2   --> G_3            
     e( 31 - 32) =     -3.71633  eV     2   --> G_4            
     e( 33 - 34) =     -3.63913  eV     2   --> G_3            
     e( 33 - 34) =     -3.63913  eV     2   --> G_4            
     e( 35 - 36) =     -3.49473  eV     2   --> G_3            
     e( 35 - 36) =     -3.49473  eV     2   --> G_4            
     e( 37 - 38) =     -2.08813  eV     2   --> G_3            
     e( 37 - 38) =     -2.08813  eV     2   --> G_4            
     e( 39 - 40) =     -1.89177  eV     2   --> G_3            
     e( 39 - 40) =     -1.89177  eV     2   --> G_4            
     e( 41 - 42) =     -0.03629  eV     2   --> G_3            
     e( 41 - 42) =     -0.03629  eV     2   --> G_4            
     e( 43 - 44) =      0.23415  eV     2   --> G_3            
     e( 43 - 44) =      0.23415  eV     2   --> G_4            
     e( 45 - 46) =      1.18968  eV     2   --> G_3            
     e( 45 - 46) =      1.18968  eV     2   --> G_4            
     e( 47 - 48) =      1.33996  eV     2   --> G_3            
     e( 47 - 48) =      1.33996  eV     2   --> G_4            

 **************************************************************************

 **************************************************************************

                    xk=(   0.00000,   0.44587,   0.00000  )

     Band symmetry, C_s (m)     double point group:

     e(  1 -  2) =    -22.41070  eV     2   --> G_3            
     e(  1 -  2) =    -22.41070  eV     2   --> G_4            
     e(  3 -  4) =    -22.40926  eV     2   --> G_3            
     e(  3 -  4) =    -22.40926  eV     2   --> G_4            
     e(  5 -  6) =    -22.40641  eV     2   --> G_3            
     e(  5 -  6) =    -22.40641  eV     2   --> G_4            
     e(  7 -  8) =    -22.40440  eV     2   --> G_3            
     e(  7 -  8) =    -22.40440  eV     2   --> G_4            
     e(  9 - 10) =    -22.37532  eV     2   --> G_3            
     e(  9 - 10) =    -22.37532  eV     2   --> G_4            
     e( 11 - 12) =    -22.37066  eV     2   --> G_3            
     e( 11 - 12) =    -22.37066  eV     2   --> G_4            
     e( 13 - 14) =    -22.34230  eV     2   --> G_3            
     e( 13 - 14) =    -22.34230  eV     2   --> G_4            
     e( 15 - 16) =    -22.33974  eV     2   --> G_3            
     e( 15 - 16) =    -22.33974  eV     2   --> G_4            
     e( 17 - 18) =    -22.33901  eV     2   --> G_3            
     e( 17 - 18) =    -22.33901  eV     2   --> G_4            
     e( 19 - 20) =    -22.33631  eV     2   --> G_3            
     e( 19 - 20) =    -22.33631  eV     2   --> G_4            
     e( 21 - 22) =    -13.85903  eV     2   --> G_3            
     e( 21 - 22) =    -13.85903  eV     2   --> G_4            
     e( 23 - 24) =    -13.61198  eV     2   --> G_3            
     e( 23 - 24) =    -13.61198  eV     2   --> G_4            
     e( 25 - 26) =     -8.30972  eV     2   --> G_3            
     e( 25 - 26) =     -8.30972  eV     2   --> G_4            
     e( 27 - 28) =     -8.04569  eV     2   --> G_3            
     e( 27 - 28) =     -8.04569  eV     2   --> G_4            
     e( 29 - 30) =     -3.93654  eV     2   --> G_3            
     e( 29 - 30) =     -3.93654  eV     2   --> G_4            
     e( 31 - 32) =     -3.71950  eV     2   --> G_3            
     e( 31 - 32) =     -3.71950  eV     2   --> G_4            
     e( 33 - 34) =     -3.66413  eV     2   --> G_3            
     e( 33 - 34) =     -3.66413  eV     2   --> G_4            
     e( 35 - 36) =     -3.43353  eV     2   --> G_3            
     e( 35 - 36) =     -3.43353  eV     2   --> G_4            
     e( 37 - 38) =     -2.17314  eV     2   --> G_3            
     e( 37 - 38) =     -2.17314  eV     2   --> G_4            
     e( 39 - 40) =     -1.79865  eV     2   --> G_3            
     e( 39 - 40) =     -1.79865  eV     2   --> G_4            
     e( 41 - 42) =     -0.13943  eV     2   --> G_3            
     e( 41 - 42) =     -0.13943  eV     2   --> G_4            
     e( 43 - 44) =      0.38773  eV     2   --> G_3            
     e( 43 - 44) =      0.38773  eV     2   --> G_4            
     e( 45 - 46) =      1.14818  eV     2   --> G_3            
     e( 45 - 46) =      1.14818  eV     2   --> G_4            
     e( 47 - 48) =      1.44590  eV     2   --> G_3            
     e( 47 - 48) =      1.44590  eV     2   --> G_4            

 **************************************************************************

 **************************************************************************

                    xk=(   0.00000,   0.42110,   0.00000  )

     Band symmetry, C_s (m)     double point group:

     e(  1 -  2) =    -22.41086  eV     2   --> G_3            
     e(  1 -  2) =    -22.41086  eV     2   --> G_4            
[...]
     e(  1 -  2) =    -22.41522  eV     2   --> G_4            
     e(  3 -  4) =    -22.40886  eV     2   --> G_3            
     e(  3 -  4) =    -22.40886  eV     2   --> G_4            
     e(  5 -  6) =    -22.40617  eV     2   --> G_3            
     e(  5 -  6) =    -22.40617  eV     2   --> G_4            
     e(  7 -  8) =    -22.39999  eV     2   --> G_3            
     e(  7 -  8) =    -22.39999  eV     2   --> G_4            
     e(  9 - 10) =    -22.39332  eV     2   --> G_3            
     e(  9 - 10) =    -22.39332  eV     2   --> G_4            
     e( 11 - 12) =    -22.36252  eV     2   --> G_3            
     e( 11 - 12) =    -22.36252  eV     2   --> G_4            
     e( 13 - 14) =    -22.34717  eV     2   --> G_3            
     e( 13 - 14) =    -22.34717  eV     2   --> G_4            
     e( 15 - 16) =    -22.34691  eV     2   --> G_3            
     e( 15 - 16) =    -22.34691  eV     2   --> G_4            
     e( 17 - 18) =    -22.33250  eV     2   --> G_3            
     e( 17 - 18) =    -22.33250  eV     2   --> G_4            
     e( 19 - 20) =    -22.33067  eV     2   --> G_3            
     e( 19 - 20) =    -22.33067  eV     2   --> G_4            
     e( 21 - 22) =    -14.54976  eV     2   --> G_3            
     e( 21 - 22) =    -14.54976  eV     2   --> G_4            
     e( 23 - 24) =    -13.23756  eV     2   --> G_3            
     e( 23 - 24) =    -13.23756  eV     2   --> G_4            
     e( 25 - 26) =     -7.99062  eV     2   --> G_3            
     e( 25 - 26) =     -7.99062  eV     2   --> G_4            
     e( 27 - 28) =     -6.42911  eV     2   --> G_3            
     e( 27 - 28) =     -6.42911  eV     2   --> G_4            
     e( 29 - 30) =     -4.81822  eV     2   --> G_3            
     e( 29 - 30) =     -4.81822  eV     2   --> G_4            
     e( 31 - 32) =     -4.65057  eV     2   --> G_3            
     e( 31 - 32) =     -4.65057  eV     2   --> G_4            
     e( 33 - 34) =     -4.24476  eV     2   --> G_3            
     e( 33 - 34) =     -4.24476  eV     2   --> G_4            
     e( 35 - 36) =     -3.34395  eV     2   --> G_3            
     e( 35 - 36) =     -3.34395  eV     2   --> G_4            
     e( 37 - 38) =     -2.69634  eV     2   --> G_3            
     e( 37 - 38) =     -2.69634  eV     2   --> G_4            
     e( 39 - 40) =     -1.86653  eV     2   --> G_3            
     e( 39 - 40) =     -1.86653  eV     2   --> G_4            
     e( 41 - 42) =      0.62544  eV     2   --> G_3            
     e( 41 - 42) =      0.62544  eV     2   --> G_4            
     e( 43 - 44) =      1.62059  eV     2   --> G_3            
     e( 43 - 44) =      1.62059  eV     2   --> G_4            
     e( 45 - 46) =      1.66925  eV     2   --> G_3            
     e( 45 - 46) =      1.66925  eV     2   --> G_4            
     e( 47 - 48) =      2.42003  eV     2   --> G_3            
     e( 47 - 48) =      2.42003  eV     2   --> G_4            

 **************************************************************************

 **************************************************************************

                    xk=(   0.00000,   0.09908,   0.00000  )

     Band symmetry, C_s (m)     double point group:

     e(  1 -  2) =    -22.41564  eV     2   --> G_3            
     e(  1 -  2) =    -22.41564  eV     2   --> G_4            
     e(  3 -  4) =    -22.40865  eV     2   --> G_3            
     e(  3 -  4) =    -22.40865  eV     2   --> G_4            
     e(  5 -  6) =    -22.40647  eV     2   --> G_3            
     e(  5 -  6) =    -22.40647  eV     2   --> G_4            
     e(  7 -  8) =    -22.39950  eV     2   --> G_3            
     e(  7 -  8) =    -22.39950  eV     2   --> G_4            
     e(  9 - 10) =    -22.39416  eV     2   --> G_3            
     e(  9 - 10) =    -22.39416  eV     2   --> G_4            
     e( 11 - 12) =    -22.36228  eV     2   --> G_3            
     e( 11 - 12) =    -22.36228  eV     2   --> G_4            
     e( 13 - 16) =    -22.34729  eV     4   -->   2 G_3            
     e( 13 - 16) =    -22.34729  eV     4   -->   2 G_4            
     e( 17 - 18) =    -22.33221  eV     2   --> G_3            
     e( 17 - 18) =    -22.33221  eV     2   --> G_4            
     e( 19 - 20) =    -22.33049  eV     2   --> G_3            
     e( 19 - 20) =    -22.33049  eV     2   --> G_4            
     e( 21 - 22) =    -14.57491  eV     2   --> G_3            
     e( 21 - 22) =    -14.57491  eV     2   --> G_4            
     e( 23 - 24) =    -13.23241  eV     2   --> G_3            
     e( 23 - 24) =    -13.23241  eV     2   --> G_4            
     e( 25 - 26) =     -7.94418  eV     2   --> G_3            
     e( 25 - 26) =     -7.94418  eV     2   --> G_4            
     e( 27 - 28) =     -6.32671  eV     2   --> G_3            
     e( 27 - 28) =     -6.32671  eV     2   --> G_4            
     e( 29 - 30) =     -4.84956  eV     2   --> G_3            
     e( 29 - 30) =     -4.84956  eV     2   --> G_4            
     e( 31 - 32) =     -4.68514  eV     2   --> G_3            
     e( 31 - 32) =     -4.68514  eV     2   --> G_4            
     e( 33 - 34) =     -4.29318  eV     2   --> G_3            
     e( 33 - 34) =     -4.29318  eV     2   --> G_4            
     e( 35 - 36) =     -3.35739  eV     2   --> G_3            
     e( 35 - 36) =     -3.35739  eV     2   --> G_4            
     e( 37 - 38) =     -2.78833  eV     2   --> G_3            
     e( 37 - 38) =     -2.78833  eV     2   --> G_4            
     e( 39 - 40) =     -1.83168  eV     2   --> G_3            
     e( 39 - 40) =     -1.83168  eV     2   --> G_4            
     e( 41 - 42) =      0.58453  eV     2   --> G_3            
     e( 41 - 42) =      0.58453  eV     2   --> G_4            
     e( 43 - 44) =      1.63819  eV     2   --> G_3            
     e( 43 - 44) =      1.63819  eV     2   --> G_4            
     e( 45 - 46) =      1.80653  eV     2   --> G_3            
     e( 45 - 46) =      1.80653  eV     2   --> G_4            
     e( 47 - 48) =      2.56203  eV     2   --> G_3            
     e( 47 - 48) =      2.56203  eV     2   --> G_4            

 **************************************************************************

 **************************************************************************

                    xk=(   0.00000,   0.07431,   0.00000  )

     Band symmetry, C_s (m)     double point group:

     e(  1 -  2) =    -22.41596  eV     2   --> G_3            
     e(  1 -  2) =    -22.41596  eV     2   --> G_4            
     e(  3 -  4) =    -22.40850  eV     2   --> G_3            
     e(  3 -  4) =    -22.40850  eV     2   --> G_4            
     e(  5 -  6) =    -22.40671  eV     2   --> G_3            
     e(  5 -  6) =    -22.40671  eV     2   --> G_4            
     e(  7 -  8) =    -22.39911  eV     2   --> G_3            
     e(  7 -  8) =    -22.39911  eV     2   --> G_4            
     e(  9 - 10) =    -22.39483  eV     2   --> G_3            
     e(  9 - 10) =    -22.39483  eV     2   --> G_4            
     e( 11 - 12) =    -22.36210  eV     2   --> G_3            
     e( 11 - 12) =    -22.36210  eV     2   --> G_4            
     e( 13 - 14) =    -22.34751  eV     2   --> G_3            
     e( 13 - 14) =    -22.34751  eV     2   --> G_4            
     e( 15 - 16) =    -22.34738  eV     2   --> G_3            
     e( 15 - 16) =    -22.34738  eV     2   --> G_4            
     e( 17 - 18) =    -22.33197  eV     2   --> G_3            
     e( 17 - 18) =    -22.33197  eV     2   --> G_4            
     e( 19 - 20) =    -22.33036  eV     2   --> G_3            
     e( 19 - 20) =    -22.33036  eV     2   --> G_4            
     e( 21 - 22) =    -14.59462  eV     2   --> G_3            
     e( 21 - 22) =    -14.59462  eV     2   --> G_4            
     e( 23 - 24) =    -13.22879  eV     2   --> G_3            
     e( 23 - 24) =    -13.22879  eV     2   --> G_4            
     e( 25 - 26) =     -7.90529  eV     2   --> G_3            
     e( 25 - 26) =     -7.90529  eV     2   --> G_4            
     e( 27 - 28) =     -6.24155  eV     2   --> G_3            
     e( 27 - 28) =     -6.24155  eV     2   --> G_4            
     e( 29 - 30) =     -4.87413  eV     2   --> G_3            
     e( 29 - 30) =     -4.87413  eV     2   --> G_4            
     e( 31 - 32) =     -4.71224  eV     2   --> G_3            
     e( 31 - 32) =     -4.71224  eV     2   --> G_4            
     e( 33 - 34) =     -4.33229  eV     2   --> G_3            
     e( 33 - 34) =     -4.33229  eV     2   --> G_4            
     e( 35 - 36) =     -3.36855  eV     2   --> G_3            
     e( 35 - 36) =     -3.36855  eV     2   --> G_4            
     e( 37 - 38) =     -2.86491  eV     2   --> G_3            
     e( 37 - 38) =     -2.86491  eV     2   --> G_4            
     e( 39 - 40) =     -1.80416  eV     2   --> G_3            
     e( 39 - 40) =     -1.80416  eV     2   --> G_4            
     e( 41 - 42) =      0.55252  eV     2   --> G_3            
     e( 41 - 42) =      0.55252  eV     2   --> G_4            
     e( 43 - 44) =      1.60647  eV     2   --> G_3            
     e( 43 - 44) =      1.60647  eV     2   --> G_4            
     e( 45 - 46) =      1.96724  eV     2   --> G_3            
     e( 45 - 46) =      1.96724  eV     2   --> G_4            
     e( 47 - 48) =      2.68467  eV     2   --> G_3            
     e( 47 - 48) =      2.68467  eV     2   --> G_4            

 **************************************************************************

 **************************************************************************

                    xk=(   0.00000,   0.04954,   0.00000  )

     Band symmetry, C_s (m)     double point group:

     e(  1 -  2) =    -22.41619  eV     2   --> G_3            
     e(  1 -  2) =    -22.41619  eV     2   --> G_4            
     e(  3 -  4) =    -22.40836  eV     2   --> G_3            
     e(  3 -  4) =    -22.40836  eV     2   --> G_4            
     e(  5 -  6) =    -22.40690  eV     2   --> G_3            
     e(  5 -  6) =    -22.40690  eV     2   --> G_4            
     e(  7 -  8) =    -22.39881  eV     2   --> G_3            
     e(  7 -  8) =    -22.39881  eV     2   --> G_4            
     e(  9 - 10) =    -22.39530  eV     2   --> G_3            
     e(  9 - 10) =    -22.39530  eV     2   --> G_4            
     e( 11 - 12) =    -22.36196  eV     2   --> G_3            
     e( 11 - 12) =    -22.36196  eV     2   --> G_4            
     e( 13 - 14) =    -22.34771  eV     2   --> G_3            
     e( 13 - 14) =    -22.34771  eV     2   --> G_4            
     e( 15 - 16) =    -22.34744  eV     2   --> G_3            
     e( 15 - 16) =    -22.34744  eV     2   --> G_4            
     e( 17 - 18) =    -22.33179  eV     2   --> G_3            
     e( 17 - 18) =    -22.33179  eV     2   --> G_4            
     e( 19 - 20) =    -22.33026  eV     2   --> G_3            
     e( 19 - 20) =    -22.33026  eV     2   --> G_4            
     e( 21 - 22) =    -14.60879  eV     2   --> G_3            
     e( 21 - 22) =    -14.60879  eV     2   --> G_4            
     e( 23 - 24) =    -13.22642  eV     2   --> G_3            
     e( 23 - 24) =    -13.22642  eV     2   --> G_4            
     e( 25 - 26) =     -7.87593  eV     2   --> G_3            
     e( 25 - 26) =     -7.87593  eV     2   --> G_4            
     e( 27 - 28) =     -6.17733  eV     2   --> G_3            
     e( 27 - 28) =     -6.17733  eV     2   --> G_4            
     e( 29 - 30) =     -4.89178  eV     2   --> G_3            
     e( 29 - 30) =     -4.89178  eV     2   --> G_4            
     e( 31 - 32) =     -4.73171  eV     2   --> G_3            
     e( 31 - 32) =     -4.73171  eV     2   --> G_4            
     e( 33 - 34) =     -4.36106  eV     2   --> G_3            
     e( 33 - 34) =     -4.36106  eV     2   --> G_4            
     e( 35 - 36) =     -3.37689  eV     2   --> G_3            
     e( 35 - 36) =     -3.37689  eV     2   --> G_4            
     e( 37 - 38) =     -2.92271  eV     2   --> G_3            
     e( 37 - 38) =     -2.92271  eV     2   --> G_4            
     e( 39 - 40) =     -1.78432  eV     2   --> G_3            
     e( 39 - 40) =     -1.78432  eV     2   --> G_4            
     e( 41 - 42) =      0.52955  eV     2   --> G_3            
     e( 41 - 42) =      0.52955  eV     2   --> G_4            
     e( 43 - 44) =      1.57978  eV     2   --> G_3            
     e( 43 - 44) =      1.57978  eV     2   --> G_4            
     e( 45 - 46) =      2.09310  eV     2   --> G_3            
     e( 45 - 46) =      2.09310  eV     2   --> G_4            
     e( 47 - 48) =      2.68801  eV     2   --> G_3            
     e( 47 - 48) =      2.68801  eV     2   --> G_4            

 **************************************************************************

 **************************************************************************

                    xk=(   0.00000,   0.02477,   0.00000  )

     Band symmetry, C_s (m)     double point group:

     e(  1 -  2) =    -22.41633  eV     2   --> G_3            
     e(  1 -  2) =    -22.41633  eV     2   --> G_4            
     e(  3 -  4) =    -22.40830  eV     2   --> G_3            
     e(  3 -  4) =    -22.40830  eV     2   --> G_4            
     e(  5 -  6) =    -22.40702  eV     2   --> G_3            
     e(  5 -  6) =    -22.40702  eV     2   --> G_4            
     e(  7 -  8) =    -22.39862  eV     2   --> G_3            
     e(  7 -  8) =    -22.39862  eV     2   --> G_4            
     e(  9 - 10) =    -22.39560  eV     2   --> G_3            
     e(  9 - 10) =    -22.39560  eV     2   --> G_4            
     e( 11 - 12) =    -22.36188  eV     2   --> G_3            
     e( 11 - 12) =    -22.36188  eV     2   --> G_4            
     e( 13 - 14) =    -22.34782  eV     2   --> G_3            
     e( 13 - 14) =    -22.34782  eV     2   --> G_4            
     e( 15 - 16) =    -22.34747  eV     2   --> G_3            
     e( 15 - 16) =    -22.34747  eV     2   --> G_4            
     e( 17 - 18) =    -22.33168  eV     2   --> G_3            
     e( 17 - 18) =    -22.33168  eV     2   --> G_4            
     e( 19 - 20) =    -22.33020  eV     2   --> G_3            
     e( 19 - 20) =    -22.33020  eV     2   --> G_4            
     e( 21 - 22) =    -14.61732  eV     2   --> G_3            
     e( 21 - 22) =    -14.61732  eV     2   --> G_4            
     e( 23 - 24) =    -13.22508  eV     2   --> G_3            
     e( 23 - 24) =    -13.22508  eV     2   --> G_4            
     e( 25 - 26) =     -7.85765  eV     2   --> G_3            
     e( 25 - 26) =     -7.85765  eV     2   --> G_4            
     e( 27 - 28) =     -6.13729  eV     2   --> G_3            
     e( 27 - 28) =     -6.13729  eV     2   --> G_4            
     e( 29 - 30) =     -4.90242  eV     2   --> G_3            
     e( 29 - 30) =     -4.90242  eV     2   --> G_4            
     e( 31 - 32) =     -4.74344  eV     2   --> G_3            
     e( 31 - 32) =     -4.74344  eV     2   --> G_4            
     e( 33 - 34) =     -4.37867  eV     2   --> G_3            
     e( 33 - 34) =     -4.37867  eV     2   --> G_4            
     e( 35 - 36) =     -3.38204  eV     2   --> G_3            
     e( 35 - 36) =     -3.38204  eV     2   --> G_4            
     e( 37 - 38) =     -2.95878  eV     2   --> G_3            
     e( 37 - 38) =     -2.95878  eV     2   --> G_4            
     e( 39 - 40) =     -1.77235  eV     2   --> G_3            
     e( 39 - 40) =     -1.77235  eV     2   --> G_4            
     e( 41 - 42) =      0.51572  eV     2   --> G_3            
     e( 41 - 42) =      0.51572  eV     2   --> G_4            
     e( 43 - 44) =      1.56217  eV     2   --> G_3            
     e( 43 - 44) =      1.56217  eV     2   --> G_4            
     e( 45 - 46) =      2.17415  eV     2   --> G_3            
     e( 45 - 46) =      2.17415  eV     2   --> G_4            
     e( 47 - 48) =      2.67428  eV     2   --> G_3            
     e( 47 - 48) =      2.67428  eV     2   --> G_4            

 **************************************************************************

 **************************************************************************

                    xk=(   0.00000,   0.00000,   0.00000  )

     Band symmetry, C_s (m)     double point group:

     e(  1 -  2) =    -22.41638  eV     2   --> G_3            
     e(  1 -  2) =    -22.41638  eV     2   --> G_4            
     e(  3 -  4) =    -22.40827  eV     2   --> G_3            
     e(  3 -  4) =    -22.40827  eV     2   --> G_4            
     e(  5 -  6) =    -22.40705  eV     2   --> G_3            
     e(  5 -  6) =    -22.40705  eV     2   --> G_4            
     e(  7 -  8) =    -22.39856  eV     2   --> G_3            
     e(  7 -  8) =    -22.39856  eV     2   --> G_4            
     e(  9 - 10) =    -22.39570  eV     2   --> G_3            
     e(  9 - 10) =    -22.39570  eV     2   --> G_4            
     e( 11 - 12) =    -22.36185  eV     2   --> G_3            
     e( 11 - 12) =    -22.36185  eV     2   --> G_4            
     e( 13 - 14) =    -22.34786  eV     2   --> G_3            
     e( 13 - 14) =    -22.34786  eV     2   --> G_4            
     e( 15 - 16) =    -22.34748  eV     2   --> G_3            
     e( 15 - 16) =    -22.34748  eV     2   --> G_4            
     e( 17 - 18) =    -22.33164  eV     2   --> G_3            
     e( 17 - 18) =    -22.33164  eV     2   --> G_4            
     e( 19 - 20) =    -22.33018  eV     2   --> G_3            
     e( 19 - 20) =    -22.33018  eV     2   --> G_4            
     e( 21 - 22) =    -14.62017  eV     2   --> G_3            
     e( 21 - 22) =    -14.62017  eV     2   --> G_4            
     e( 23 - 24) =    -13.22464  eV     2   --> G_3            
     e( 23 - 24) =    -13.22464  eV     2   --> G_4            
     e( 25 - 26) =     -7.85144  eV     2   --> G_3            
     e( 25 - 26) =     -7.85144  eV     2   --> G_4            
     e( 27 - 28) =     -6.12368  eV     2   --> G_3            
     e( 27 - 28) =     -6.12368  eV     2   --> G_4            
     e( 29 - 30) =     -4.90598  eV     2   --> G_3            
     e( 29 - 30) =     -4.90598  eV     2   --> G_4            
     e( 31 - 32) =     -4.74736  eV     2   --> G_3            
     e( 31 - 32) =     -4.74736  eV     2   --> G_4            
     e( 33 - 34) =     -4.38460  eV     2   --> G_3            
     e( 33 - 34) =     -4.38460  eV     2   --> G_4            
     e( 35 - 36) =     -3.38378  eV     2   --> G_3            
     e( 35 - 36) =     -3.38378  eV     2   --> G_4            
     e( 37 - 38) =     -2.97106  eV     2   --> G_3            
     e( 37 - 38) =     -2.97106  eV     2   --> G_4            
     e( 39 - 40) =     -1.76835  eV     2   --> G_3            
     e( 39 - 40) =     -1.76835  eV     2   --> G_4            
     e( 41 - 42) =      0.51111  eV     2   --> G_3            
     e( 41 - 42) =      0.51111  eV     2   --> G_4            
     e( 43 - 44) =      1.55604  eV     2   --> G_3            
     e( 43 - 44) =      1.55604  eV     2   --> G_4            
     e( 45 - 46) =      2.20225  eV     2   --> G_3            
     e( 45 - 46) =      2.20225  eV     2   --> G_4            
     e( 47 - 48) =      2.66962  eV     2   --> G_3            
     e( 47 - 48) =      2.66962  eV     2   --> G_4            

 **************************************************************************
 
     BANDS        :   4m42.48s CPU   6m52.35s WALL

 
   This run was terminated on:  13:32:47  19Mar2023            

=------------------------------------------------------------------------------=
   JOB DONE.
=------------------------------------------------------------------------------=
