
     Program PWSCF v.6.8 starts on 19Mar2023 at 13: 5:55 

     This program is part of the open-source Quantum ESPRESSO suite
     for quantum simulation of materials; please cite
         "P. Giannozzi et al., J. Phys.:Condens. Matter 21 395502 (2009);
         "P. Giannozzi et al., J. Phys.:Condens. Matter 29 465901 (2017);
         "P. Giannozzi et al., J. Chem. Phys. 152 154105 (2020);
          URL http://www.quantum-espresso.org", 
     in publications or presentations arising from this work. More details at
     http://www.quantum-espresso.org/quote

     Parallel version (MPI), running on    12 processors

     MPI processes distributed on     1 nodes
     R & G space division:  proc/nbgrp/npool/nimage =      12
     238865 MiB available memory on the printing compute node when the environment starts
 
     Waiting for input...
     Reading input from standard input

     Current dimensions of program PWSCF are:
     Max number of different atomic species (ntypx) = 10
     Max number of k-points (npk) =  40000
     Max angular momentum in pseudopotentials (lmaxx) =  4

     Atomic positions and unit cell read from directory:
     ./SnS.save/
     Atomic positions from file used, from input discarded
 
     Message from routine setup:
     At least one non s.o. pseudo
     Message from routine setup:
     using ibrav=0 with symmetry is DISCOURAGED, use correct ibrav instead

     Subspace diagonalization in iterative solution of the eigenvalue problem:
     a serial algorithm will be used

 
     Parallelization info
     --------------------
     sticks:   dense  smooth     PW     G-vecs:    dense   smooth      PW
     Min         206     103     29                37124    13119    2019
     Max         207     104     30                37137    13128    2034
     Sum        2475    1241    357               445547   157475   24283
 
     Using Slab Decomposition
 


     bravais-lattice index     =            0
     lattice parameter (alat)  =       8.0209  a.u.
     unit-cell volume          =    2509.2470 (a.u.)^3
     number of atoms/cell      =            4
     number of atomic types    =            2
     number of electrons       =        40.00
     number of Kohn-Sham states=           48
     kinetic-energy cutoff     =      60.0000  Ry
     charge density cutoff     =     480.0000  Ry
     Exchange-correlation= SLA  PW   PSX  PSC
                           (   1   4  10   8   0   0   0)
     Non magnetic calculation with spin-orbit


     celldm(1)=   8.020891  celldm(2)=   0.000000  celldm(3)=   0.000000
     celldm(4)=   0.000000  celldm(5)=   0.000000  celldm(6)=   0.000000

     crystal axes: (cart. coord. in units of alat)
               a(1) = (   1.000000   0.000000   0.000000 )  
               a(2) = (   0.000000   1.009273   0.000000 )  
               a(3) = (   0.000000   0.000000   4.818002 )  

     reciprocal axes: (cart. coord. in units 2 pi/alat)
               b(1) = (  1.000000  0.000000  0.000000 )  
               b(2) = (  0.000000  0.990813  0.000000 )  
               b(3) = (  0.000000  0.000000  0.207555 )  


     PseudoPot. # 1 for S  read from file:
     ./s_pbesol_v1.4.uspp.F.UPF
     MD5 check sum: 0ccfa86ec6eb59065d10aaae963ef2a7
     Pseudo is Ultrasoft + core correction, Zval =  6.0
     Generated by new atomic code, or converted to UPF format
     Using radial grid of  907 points,  6 beta functions with: 
                l(1) =   0
                l(2) =   0
                l(3) =   1
                l(4) =   1
                l(5) =   2
                l(6) =   2
     Q(r) pseudized with  8 coefficients,  rinner =    1.300   1.300   1.300
                                                       1.300   1.300

     PseudoPot. # 2 for Sn read from file:
     ./sn_pbesol_v1.4.uspp.F.UPF
     MD5 check sum: 463fec1d5456f1e96ec1bfcad4b7b038
     Pseudo is Ultrasoft + core correction, Zval = 14.0
     Generated by new atomic code, or converted to UPF format
     Using radial grid of  891 points,  6 beta functions with: 
                l(1) =   0
                l(2) =   0
                l(3) =   1
                l(4) =   1
                l(5) =   2
                l(6) =   2
     Q(r) pseudized with  8 coefficients,  rinner =    1.350   1.350   1.350
                                                       1.350   1.350

     atomic species   valence    mass     pseudopotential
        S              6.00    32.06500     S ( 1.00)
        Sn            14.00   118.71000     Sn( 1.00)

      2 Sym. Ops. (no inversion) found ( 1 have fractional translation)


                                    s                        frac. trans.

      isym =  1     identity                                     

 cryst.   s( 1) = (     1          0          0      )
                  (     0          1          0      )
                  (     0          0          1      )

 cart.    s( 1) = (  1.0000000  0.0000000  0.0000000 )
                  (  0.0000000  1.0000000  0.0000000 )
                  (  0.0000000  0.0000000  1.0000000 )


      isym =  2     inv. 180 deg rotation - cart. axis [1,0,0]   

 cryst.   s( 2) = (    -1          0          0      )    f =(  0.5000000 )
                  (     0          1          0      )       (  0.0000000 )
                  (     0          0          1      )       (  0.0000000 )

 cart.    s( 2) = ( -1.0000000  0.0000000  0.0000000 )    f =(  0.5000000 )
                  (  0.0000000  1.0000000  0.0000000 )       (  0.0000000 )
                  (  0.0000000  0.0000000  1.0000000 )       (  0.0000000 )


   Cartesian axes

     site n.     atom                  positions (alat units)
         1           Sn  tau(   1) = (   0.2500000   0.3861596   1.7457504  )
         2           Sn  tau(   2) = (   0.7500000   0.8907954   2.3854385  )
         3           S   tau(   3) = (   0.7500000   0.9805050   1.7916728  )
         4           S   tau(   4) = (   0.2500000   0.4758703   2.3395201  )

   Crystallographic axes

     site n.     atom                  positions (cryst. coord.)
         1           Sn  tau(   1) = (  0.2500000  0.3826117  0.3623391  )
         2           Sn  tau(   2) = (  0.7500000  0.8826113  0.4951095  )
         3           S   tau(   3) = (  0.7500000  0.9714967  0.3718705  )
         4           S   tau(   4) = (  0.2500000  0.4714982  0.4855789  )

     number of k points=    50  Marzari-Vanderbilt smearing, width (Ry)=  0.0147
                       cart. coord. in units 2pi/alat
        k(    1) = (   0.0000000   0.0000000   0.0000000), wk =   0.0078125
        k(    2) = (   0.0000000   0.0000000  -0.1037775), wk =   0.0078125
        k(    3) = (   0.0000000   0.1238516   0.0000000), wk =   0.0156250
        k(    4) = (   0.0000000   0.1238516  -0.1037775), wk =   0.0156250
        k(    5) = (   0.0000000   0.2477031   0.0000000), wk =   0.0156250
        k(    6) = (   0.0000000   0.2477031  -0.1037775), wk =   0.0156250
        k(    7) = (   0.0000000   0.3715547   0.0000000), wk =   0.0156250
        k(    8) = (   0.0000000   0.3715547  -0.1037775), wk =   0.0156250
        k(    9) = (   0.0000000  -0.4954063   0.0000000), wk =   0.0078125
        k(   10) = (   0.0000000  -0.4954063  -0.1037775), wk =   0.0078125
        k(   11) = (   0.1250000   0.0000000   0.0000000), wk =   0.0156250
        k(   12) = (   0.1250000   0.0000000  -0.1037775), wk =   0.0156250
        k(   13) = (   0.1250000   0.1238516   0.0000000), wk =   0.0312500
        k(   14) = (   0.1250000   0.1238516  -0.1037775), wk =   0.0312500
        k(   15) = (   0.1250000   0.2477031   0.0000000), wk =   0.0312500
        k(   16) = (   0.1250000   0.2477031  -0.1037775), wk =   0.0312500
        k(   17) = (   0.1250000   0.3715547   0.0000000), wk =   0.0312500
        k(   18) = (   0.1250000   0.3715547  -0.1037775), wk =   0.0312500
        k(   19) = (   0.1250000  -0.4954063   0.0000000), wk =   0.0156250
        k(   20) = (   0.1250000  -0.4954063  -0.1037775), wk =   0.0156250
        k(   21) = (   0.2500000   0.0000000   0.0000000), wk =   0.0156250
        k(   22) = (   0.2500000   0.0000000  -0.1037775), wk =   0.0156250
        k(   23) = (   0.2500000   0.1238516   0.0000000), wk =   0.0312500
        k(   24) = (   0.2500000   0.1238516  -0.1037775), wk =   0.0312500
        k(   25) = (   0.2500000   0.2477031   0.0000000), wk =   0.0312500
        k(   26) = (   0.2500000   0.2477031  -0.1037775), wk =   0.0312500
        k(   27) = (   0.2500000   0.3715547   0.0000000), wk =   0.0312500
        k(   28) = (   0.2500000   0.3715547  -0.1037775), wk =   0.0312500
        k(   29) = (   0.2500000  -0.4954063   0.0000000), wk =   0.0156250
        k(   30) = (   0.2500000  -0.4954063  -0.1037775), wk =   0.0156250
        k(   31) = (   0.3750000   0.0000000   0.0000000), wk =   0.0156250
        k(   32) = (   0.3750000   0.0000000  -0.1037775), wk =   0.0156250
        k(   33) = (   0.3750000   0.1238516   0.0000000), wk =   0.0312500
        k(   34) = (   0.3750000   0.1238516  -0.1037775), wk =   0.0312500
        k(   35) = (   0.3750000   0.2477031   0.0000000), wk =   0.0312500
        k(   36) = (   0.3750000   0.2477031  -0.1037775), wk =   0.0312500
        k(   37) = (   0.3750000   0.3715547   0.0000000), wk =   0.0312500
        k(   38) = (   0.3750000   0.3715547  -0.1037775), wk =   0.0312500
        k(   39) = (   0.3750000  -0.4954063   0.0000000), wk =   0.0156250
        k(   40) = (   0.3750000  -0.4954063  -0.1037775), wk =   0.0156250
        k(   41) = (  -0.5000000   0.0000000   0.0000000), wk =   0.0078125
        k(   42) = (  -0.5000000   0.0000000  -0.1037775), wk =   0.0078125
        k(   43) = (  -0.5000000   0.1238516   0.0000000), wk =   0.0156250
        k(   44) = (  -0.5000000   0.1238516  -0.1037775), wk =   0.0156250
        k(   45) = (  -0.5000000   0.2477031   0.0000000), wk =   0.0156250
        k(   46) = (  -0.5000000   0.2477031  -0.1037775), wk =   0.0156250
        k(   47) = (  -0.5000000   0.3715547   0.0000000), wk =   0.0156250
        k(   48) = (  -0.5000000   0.3715547  -0.1037775), wk =   0.0156250
        k(   49) = (  -0.5000000  -0.4954063   0.0000000), wk =   0.0078125
        k(   50) = (  -0.5000000  -0.4954063  -0.1037775), wk =   0.0078125

                       cryst. coord.
        k(    1) = (   0.0000000   0.0000000   0.0000000), wk =   0.0078125
        k(    2) = (   0.0000000   0.0000000  -0.5000000), wk =   0.0078125
        k(    3) = (   0.0000000   0.1250000   0.0000000), wk =   0.0156250
        k(    4) = (   0.0000000   0.1250000  -0.5000000), wk =   0.0156250
        k(    5) = (   0.0000000   0.2500000   0.0000000), wk =   0.0156250
        k(    6) = (   0.0000000   0.2500000  -0.5000000), wk =   0.0156250
        k(    7) = (   0.0000000   0.3750000   0.0000000), wk =   0.0156250
        k(    8) = (   0.0000000   0.3750000  -0.5000000), wk =   0.0156250
        k(    9) = (   0.0000000  -0.5000000   0.0000000), wk =   0.0078125
        k(   10) = (   0.0000000  -0.5000000  -0.5000000), wk =   0.0078125
        k(   11) = (   0.1250000   0.0000000   0.0000000), wk =   0.0156250
        k(   12) = (   0.1250000   0.0000000  -0.5000000), wk =   0.0156250
        k(   13) = (   0.1250000   0.1250000   0.0000000), wk =   0.0312500
        k(   14) = (   0.1250000   0.1250000  -0.5000000), wk =   0.0312500
        k(   15) = (   0.1250000   0.2500000   0.0000000), wk =   0.0312500
        k(   16) = (   0.1250000   0.2500000  -0.5000000), wk =   0.0312500
        k(   17) = (   0.1250000   0.3750000   0.0000000), wk =   0.0312500
        k(   18) = (   0.1250000   0.3750000  -0.5000000), wk =   0.0312500
        k(   19) = (   0.1250000  -0.5000000   0.0000000), wk =   0.0156250
        k(   20) = (   0.1250000  -0.5000000  -0.5000000), wk =   0.0156250
        k(   21) = (   0.2500000   0.0000000   0.0000000), wk =   0.0156250
        k(   22) = (   0.2500000   0.0000000  -0.5000000), wk =   0.0156250
        k(   23) = (   0.2500000   0.1250000   0.0000000), wk =   0.0312500
        k(   24) = (   0.2500000   0.1250000  -0.5000000), wk =   0.0312500
        k(   25) = (   0.2500000   0.2500000   0.0000000), wk =   0.0312500
        k(   26) = (   0.2500000   0.2500000  -0.5000000), wk =   0.0312500
        k(   27) = (   0.2500000   0.3750000   0.0000000), wk =   0.0312500
        k(   28) = (   0.2500000   0.3750000  -0.5000000), wk =   0.0312500
        k(   29) = (   0.2500000  -0.5000000   0.0000000), wk =   0.0156250
        k(   30) = (   0.2500000  -0.5000000  -0.5000000), wk =   0.0156250
        k(   31) = (   0.3750000   0.0000000   0.0000000), wk =   0.0156250
        k(   32) = (   0.3750000   0.0000000  -0.5000000), wk =   0.0156250
        k(   33) = (   0.3750000   0.1250000   0.0000000), wk =   0.0312500
        k(   34) = (   0.3750000   0.1250000  -0.5000000), wk =   0.0312500
        k(   35) = (   0.3750000   0.2500000   0.0000000), wk =   0.0312500
        k(   36) = (   0.3750000   0.2500000  -0.5000000), wk =   0.0312500
        k(   37) = (   0.3750000   0.3750000   0.0000000), wk =   0.0312500
        k(   38) = (   0.3750000   0.3750000  -0.5000000), wk =   0.0312500
        k(   39) = (   0.3750000  -0.5000000   0.0000000), wk =   0.0156250
        k(   40) = (   0.3750000  -0.5000000  -0.5000000), wk =   0.0156250
        k(   41) = (  -0.5000000   0.0000000   0.0000000), wk =   0.0078125
        k(   42) = (  -0.5000000   0.0000000  -0.5000000), wk =   0.0078125
        k(   43) = (  -0.5000000   0.1250000   0.0000000), wk =   0.0156250
        k(   44) = (  -0.5000000   0.1250000  -0.5000000), wk =   0.0156250
        k(   45) = (  -0.5000000   0.2500000   0.0000000), wk =   0.0156250
        k(   46) = (  -0.5000000   0.2500000  -0.5000000), wk =   0.0156250
        k(   47) = (  -0.5000000   0.3750000   0.0000000), wk =   0.0156250
        k(   48) = (  -0.5000000   0.3750000  -0.5000000), wk =   0.0156250
        k(   49) = (  -0.5000000  -0.5000000   0.0000000), wk =   0.0078125
        k(   50) = (  -0.5000000  -0.5000000  -0.5000000), wk =   0.0078125

     Dense  grid:   445547 G-vectors     FFT dimensions: (  60,  60, 270)

     Smooth grid:   157475 G-vectors     FFT dimensions: (  40,  40, 192)

     Dynamical RAM for                 wfc:       2.40 MB

     Dynamical RAM for     wfc (w. buffer):       2.40 MB

     Dynamical RAM for           str. fact:       1.13 MB

     Dynamical RAM for           local pot:       0.00 MB

     Dynamical RAM for          nlocal pot:       1.80 MB

     Dynamical RAM for                qrad:       3.52 MB

     Dynamical RAM for          rho,v,vnew:      14.38 MB

     Dynamical RAM for           G-vectors:       2.23 MB

     Dynamical RAM for          h,s,v(r/c):       0.42 MB

     Dynamical RAM for          <psi|beta>:       0.11 MB

     Dynamical RAM for                 psi:       4.81 MB

     Dynamical RAM for                hpsi:       4.81 MB

     Dynamical RAM for                spsi:       4.81 MB

     Dynamical RAM for      wfcinit/wfcrot:       3.97 MB

     Dynamical RAM for           addusdens:     106.53 MB

     Estimated static dynamical RAM per process >      32.21 MB

     Estimated max dynamical RAM per process >     138.75 MB

     Estimated total dynamical RAM >       1.63 GB

     The potential is recalculated from file :
     ./SnS.save/charge-density


     negative rho (up, down):  4.902E-05 0.000E+00
     Starting wfcs are   52 randomized atomic wfcs

     Band Structure Calculation
     Davidson diagonalization with overlap

     Computing kpt #:     1  of    50
     total cpu time spent up to now is       10.7 secs

     Computing kpt #:     2  of    50
     total cpu time spent up to now is       19.6 secs

     Computing kpt #:     3  of    50
     total cpu time spent up to now is       27.5 secs

     Computing kpt #:     4  of    50
     total cpu time spent up to now is       35.4 secs

     Computing kpt #:     5  of    50
     total cpu time spent up to now is       42.8 secs

     Computing kpt #:     6  of    50
     total cpu time spent up to now is       50.1 secs

     Computing kpt #:     7  of    50
     total cpu time spent up to now is       58.7 secs

     Computing kpt #:     8  of    50
     total cpu time spent up to now is       67.2 secs

     Computing kpt #:     9  of    50
     total cpu time spent up to now is       74.7 secs

     Computing kpt #:    10  of    50
     total cpu time spent up to now is       82.1 secs

     Computing kpt #:    11  of    50
     total cpu time spent up to now is       90.0 secs

     Computing kpt #:    12  of    50
     total cpu time spent up to now is       97.8 secs

     Computing kpt #:    13  of    50
     total cpu time spent up to now is      105.7 secs

     Computing kpt #:    14  of    50
     total cpu time spent up to now is      113.6 secs

     Computing kpt #:    15  of    50
     total cpu time spent up to now is      121.5 secs

     Computing kpt #:    16  of    50
     total cpu time spent up to now is      129.2 secs

     Computing kpt #:    17  of    50
     total cpu time spent up to now is      137.1 secs

     Computing kpt #:    18  of    50
     total cpu time spent up to now is      145.1 secs

     Computing kpt #:    19  of    50
     total cpu time spent up to now is      153.2 secs

     Computing kpt #:    20  of    50
     total cpu time spent up to now is      161.3 secs

     Computing kpt #:    21  of    50
     total cpu time spent up to now is      169.1 secs

     Computing kpt #:    22  of    50
     total cpu time spent up to now is      177.1 secs

     Computing kpt #:    23  of    50
     total cpu time spent up to now is      184.9 secs

     Computing kpt #:    24  of    50
     total cpu time spent up to now is      192.7 secs

     Computing kpt #:    25  of    50
     total cpu time spent up to now is      200.7 secs

     Computing kpt #:    26  of    50
     total cpu time spent up to now is      208.7 secs

     Computing kpt #:    27  of    50
     total cpu time spent up to now is      216.7 secs

     Computing kpt #:    28  of    50
     total cpu time spent up to now is      224.9 secs

     Computing kpt #:    29  of    50
     total cpu time spent up to now is      233.0 secs

     Computing kpt #:    30  of    50
     total cpu time spent up to now is      241.2 secs

     Computing kpt #:    31  of    50
     total cpu time spent up to now is      249.5 secs

     Computing kpt #:    32  of    50
     total cpu time spent up to now is      258.3 secs

     Computing kpt #:    33  of    50
     total cpu time spent up to now is      266.2 secs

     Computing kpt #:    34  of    50
     total cpu time spent up to now is      274.2 secs

     Computing kpt #:    35  of    50
     total cpu time spent up to now is      282.1 secs

     Computing kpt #:    36  of    50
     total cpu time spent up to now is      290.2 secs

     Computing kpt #:    37  of    50
     total cpu time spent up to now is      298.2 secs

     Computing kpt #:    38  of    50
     total cpu time spent up to now is      305.5 secs

     Computing kpt #:    39  of    50
     total cpu time spent up to now is      312.1 secs

     Computing kpt #:    40  of    50
     total cpu time spent up to now is      318.6 secs

     Computing kpt #:    41  of    50
     total cpu time spent up to now is      324.1 secs

     Computing kpt #:    42  of    50
     total cpu time spent up to now is      328.7 secs

     Computing kpt #:    43  of    50
     total cpu time spent up to now is      333.5 secs

     Computing kpt #:    44  of    50
     total cpu time spent up to now is      338.1 secs

     Computing kpt #:    45  of    50
     total cpu time spent up to now is      342.7 secs

     Computing kpt #:    46  of    50
     total cpu time spent up to now is      347.1 secs

     Computing kpt #:    47  of    50
     total cpu time spent up to now is      351.6 secs

     Computing kpt #:    48  of    50
     total cpu time spent up to now is      356.1 secs

     Computing kpt #:    49  of    50
     total cpu time spent up to now is      360.6 secs

     Computing kpt #:    50  of    50
     total cpu time spent up to now is      364.8 secs

     ethr =  2.00E-12,  avg # of iterations = 72.5

     total cpu time spent up to now is      364.8 secs

     End of band structure calculation

          k = 0.0000 0.0000 0.0000 ( 19607 PWs)   bands (ev):

   -22.4164 -22.4164 -22.4083 -22.4083 -22.4071 -22.4071 -22.3986 -22.3986
   -22.3957 -22.3957 -22.3619 -22.3619 -22.3479 -22.3479 -22.3475 -22.3475
   -22.3316 -22.3316 -22.3302 -22.3302 -14.6202 -14.6202 -13.2246 -13.2246
    -7.8514  -7.8514  -6.1237  -6.1237  -4.9060  -4.9060  -4.7474  -4.7474
    -4.3846  -4.3846  -3.3838  -3.3838  -2.9711  -2.9711  -1.7684  -1.7684
     0.5111   0.5111   1.5560   1.5560   2.2022   2.2022   2.6696   2.6696

     occupation numbers 
     1.0000   1.0000   1.0000   1.0000   1.0000   1.0000   1.0000   1.0000
     1.0000   1.0000   1.0000   1.0000   1.0000   1.0000   1.0000   1.0000
     1.0000   1.0000   1.0000   1.0000   1.0000   1.0000   1.0000   1.0000
     1.0000   1.0000   1.0000   1.0000   1.0000   1.0000   1.0000   1.0000
     1.0000   1.0000   1.0000   1.0000   1.0000   1.0000   1.0000   1.0000
     0.0000   0.0000   0.0000   0.0000   0.0000   0.0000   0.0000   0.0000

          k = 0.0000 0.0000-0.1038 ( 19604 PWs)   bands (ev):

   -22.4164 -22.4164 -22.4083 -22.4083 -22.4071 -22.4071 -22.3986 -22.3986
   -22.3957 -22.3957 -22.3618 -22.3618 -22.3479 -22.3479 -22.3475 -22.3475
   -22.3316 -22.3316 -22.3302 -22.3302 -14.6202 -14.6202 -13.2246 -13.2246
    -7.8514  -7.8514  -6.1237  -6.1237  -4.9060  -4.9060  -4.7474  -4.7474
    -4.3846  -4.3846  -3.3838  -3.3838  -2.9711  -2.9711  -1.7684  -1.7684
     0.5110   0.5110   1.5560   1.5560   2.2034   2.2034   2.7079   2.7079

     occupation numbers 
     1.0000   1.0000   1.0000   1.0000   1.0000   1.0000   1.0000   1.0000
     1.0000   1.0000   1.0000   1.0000   1.0000   1.0000   1.0000   1.0000
     1.0000   1.0000   1.0000   1.0000   1.0000   1.0000   1.0000   1.0000
     1.0000   1.0000   1.0000   1.0000   1.0000   1.0000   1.0000   1.0000
     1.0000   1.0000   1.0000   1.0000   1.0000   1.0000   1.0000   1.0000
     0.0000   0.0000   0.0000   0.0000   0.0000   0.0000   0.0000   0.0000

          k = 0.0000 0.1239 0.0000 ( 19624 PWs)   bands (ev):

   -22.4152 -22.4152 -22.4089 -22.4089 -22.4062 -22.4062 -22.4000 -22.4000
   -22.3933 -22.3933 -22.3625 -22.3625 -22.3472 -22.3472 -22.3469 -22.3469
   -22.3325 -22.3325 -22.3307 -22.3307 -14.5498 -14.5498 -13.2376 -13.2376
    -7.9906  -7.9906  -6.4291  -6.4291  -4.8182  -4.8182  -4.6506  -4.6506
    -4.2448  -4.2448  -3.3439  -3.3439  -2.6963  -2.6963  -1.8665  -1.8665
     0.6254   0.6254   1.6206   1.6206   1.6693   1.6693   2.4200   2.4200

     occupation numbers 
     1.0000   1.0000   1.0000   1.0000   1.0000   1.0000   1.0000   1.0000
     1.0000   1.0000   1.0000   1.0000   1.0000   1.0000   1.0000   1.0000
     1.0000   1.0000   1.0000   1.0000   1.0000   1.0000   1.0000   1.0000
     1.0000   1.0000   1.0000   1.0000   1.0000   1.0000   1.0000   1.0000
     1.0000   1.0000   1.0000   1.0000   1.0000   1.0000   1.0000   1.0000
     0.0000   0.0000   0.0000   0.0000   0.0000   0.0000   0.0000   0.0000

          k = 0.0000 0.1239-0.1038 ( 19622 PWs)   bands (ev):

   -22.4152 -22.4152 -22.4089 -22.4089 -22.4062 -22.4062 -22.4000 -22.4000
   -22.3933 -22.3933 -22.3625 -22.3625 -22.3472 -22.3472 -22.3469 -22.3469
   -22.3325 -22.3325 -22.3307 -22.3307 -14.5498 -14.5498 -13.2376 -13.2376
    -7.9906  -7.9906  -6.4291  -6.4291  -4.8182  -4.8182  -4.6506  -4.6506
    -4.2448  -4.2448  -3.3439  -3.3439  -2.6963  -2.6963  -1.8665  -1.8665
     0.6254   0.6254   1.6206   1.6206   1.6692   1.6692   2.4200   2.4200

     occupation numbers 
     1.0000   1.0000   1.0000   1.0000   1.0000   1.0000   1.0000   1.0000
     1.0000   1.0000   1.0000   1.0000   1.0000   1.0000   1.0000   1.0000
     1.0000   1.0000   1.0000   1.0000   1.0000   1.0000   1.0000   1.0000
     1.0000   1.0000   1.0000   1.0000   1.0000   1.0000   1.0000   1.0000
     1.0000   1.0000   1.0000   1.0000   1.0000   1.0000   1.0000   1.0000
     0.0000   0.0000   0.0000   0.0000   0.0000   0.0000   0.0000   0.0000

          k = 0.0000 0.2477 0.0000 ( 19672 PWs)   bands (ev):

   -22.4122 -22.4122 -22.4101 -22.4101 -22.4044 -22.4044 -22.4035 -22.4035
   -22.3871 -22.3871 -22.3646 -22.3646 -22.3461 -22.3461 -22.3444 -22.3444
   -22.3348 -22.3348 -22.3321 -22.3321 -14.3496 -14.3496 -13.3000 -13.3000
    -8.2544  -8.2544  -7.0795  -7.0795  -4.5667  -4.5667  -4.3754  -4.3754
    -3.9096  -3.9096  -3.2722  -3.2722  -2.1214  -2.1214  -2.1173  -2.1173
     0.5604   0.5604   0.9527   0.9527   1.5789   1.5789   1.6478   1.6478

     occupation numbers 
     1.0000   1.0000   1.0000   1.0000   1.0000   1.0000   1.0000   1.0000
     1.0000   1.0000   1.0000   1.0000   1.0000   1.0000   1.0000   1.0000
     1.0000   1.0000   1.0000   1.0000   1.0000   1.0000   1.0000   1.0000
     1.0000   1.0000   1.0000   1.0000   1.0000   1.0000   1.0000   1.0000
     1.0000   1.0000   1.0000   1.0000   1.0000   1.0000   1.0000   1.0000
     0.0000   0.0000   0.0000   0.0000   0.0000   0.0000   0.0000   0.0000

          k = 0.0000 0.2477-0.1038 ( 19698 PWs)   bands (ev):

   -22.4123 -22.4123 -22.4101 -22.4101 -22.4044 -22.4044 -22.4035 -22.4035
   -22.3871 -22.3871 -22.3646 -22.3646 -22.3461 -22.3461 -22.3444 -22.3444
   -22.3348 -22.3348 -22.3321 -22.3321 -14.3496 -14.3496 -13.3000 -13.3000
    -8.2544  -8.2544  -7.0795  -7.0795  -4.5667  -4.5667  -4.3754  -4.3754
    -3.9096  -3.9096  -3.2722  -3.2722  -2.1214  -2.1214  -2.1173  -2.1173
     0.5604   0.5604   0.9526   0.9526   1.5789   1.5789   1.6478   1.6478

     occupation numbers 
     1.0000   1.0000   1.0000   1.0000   1.0000   1.0000   1.0000   1.0000
     1.0000   1.0000   1.0000   1.0000   1.0000   1.0000   1.0000   1.0000
     1.0000   1.0000   1.0000   1.0000   1.0000   1.0000   1.0000   1.0000
     1.0000   1.0000   1.0000   1.0000   1.0000   1.0000   1.0000   1.0000
     1.0000   1.0000   1.0000   1.0000   1.0000   1.0000   1.0000   1.0000
     0.0000   0.0000   0.0000   0.0000   0.0000   0.0000   0.0000   0.0000

          k = 0.0000 0.3716 0.0000 ( 19718 PWs)   bands (ev):

   -22.4109 -22.4109 -22.4085 -22.4085 -22.4074 -22.4074 -22.4038 -22.4038
   -22.3795 -22.3795 -22.3679 -22.3679 -22.3440 -22.3440 -22.3411 -22.3411
   -22.3378 -22.3378 -22.3345 -22.3345 -14.0552 -14.0552 -13.4605 -13.4605
    -8.3759  -8.3759  -7.7343  -7.7343  -4.1889  -4.1889  -3.9754  -3.9754
    -3.6253  -3.6253  -3.3057  -3.3057  -2.3015  -2.3015  -1.6808  -1.6808
    -0.1993  -0.1993   0.8656   0.8656   1.1682   1.1682   1.5319   1.5319

     occupation numbers 
     1.0000   1.0000   1.0000   1.0000   1.0000   1.0000   1.0000   1.0000
     1.0000   1.0000   1.0000   1.0000   1.0000   1.0000   1.0000   1.0000
     1.0000   1.0000   1.0000   1.0000   1.0000   1.0000   1.0000   1.0000
     1.0000   1.0000   1.0000   1.0000   1.0000   1.0000   1.0000   1.0000
     1.0000   1.0000   1.0000   1.0000   1.0000   1.0000   1.0000   1.0000
     0.0000   0.0000   0.0000   0.0000   0.0000   0.0000   0.0000   0.0000

          k = 0.0000 0.3716-0.1038 ( 19724 PWs)   bands (ev):

   -22.4109 -22.4109 -22.4085 -22.4085 -22.4074 -22.4074 -22.4038 -22.4038
   -22.3795 -22.3795 -22.3679 -22.3679 -22.3440 -22.3440 -22.3411 -22.3411
   -22.3378 -22.3378 -22.3345 -22.3345 -14.0552 -14.0552 -13.4605 -13.4605
    -8.3759  -8.3759  -7.7343  -7.7343  -4.1889  -4.1889  -3.9754  -3.9754
    -3.6253  -3.6253  -3.3057  -3.3057  -2.3015  -2.3015  -1.6808  -1.6808
    -0.1993  -0.1993   0.8656   0.8656   1.1682   1.1682   1.5319   1.5319

     occupation numbers 
     1.0000   1.0000   1.0000   1.0000   1.0000   1.0000   1.0000   1.0000
     1.0000   1.0000   1.0000   1.0000   1.0000   1.0000   1.0000   1.0000
     1.0000   1.0000   1.0000   1.0000   1.0000   1.0000   1.0000   1.0000
     1.0000   1.0000   1.0000   1.0000   1.0000   1.0000   1.0000   1.0000
     1.0000   1.0000   1.0000   1.0000   1.0000   1.0000   1.0000   1.0000
     0.0000   0.0000   0.0000   0.0000   0.0000   0.0000   0.0000   0.0000

          k = 0.0000-0.4954 0.0000 ( 19712 PWs)   bands (ev):

   -22.4102 -22.4102 -22.4101 -22.4101 -22.4053 -22.4053 -22.4052 -22.4052
   -22.3728 -22.3728 -22.3728 -22.3728 -22.3411 -22.3411 -22.3410 -22.3410
   -22.3376 -22.3376 -22.3376 -22.3376 -13.7311 -13.7311 -13.7311 -13.7311
    -8.2017  -8.2017  -8.2017  -8.2017  -3.7817  -3.7817  -3.7817  -3.7817
    -3.5637  -3.5637  -3.5637  -3.5637  -1.9916  -1.9916  -1.9916  -1.9916
     0.0909   0.0909   0.0909   0.0909   1.2540   1.2540   1.2541   1.2541

     occupation numbers 
     1.0000   1.0000   1.0000   1.0000   1.0000   1.0000   1.0000   1.0000
     1.0000   1.0000   1.0000   1.0000   1.0000   1.0000   1.0000   1.0000
     1.0000   1.0000   1.0000   1.0000   1.0000   1.0000   1.0000   1.0000
     1.0000   1.0000   1.0000   1.0000   1.0000   1.0000   1.0000   1.0000
     1.0000   1.0000   1.0000   1.0000   1.0000   1.0000   1.0000   1.0000
     0.0000   0.0000   0.0000   0.0000   0.0000   0.0000   0.0000   0.0000

          k = 0.0000-0.4954-0.1038 ( 19736 PWs)   bands (ev):

   -22.4102 -22.4102 -22.4101 -22.4101 -22.4053 -22.4053 -22.4052 -22.4052
   -22.3729 -22.3729 -22.3728 -22.3728 -22.3411 -22.3411 -22.3410 -22.3410
   -22.3376 -22.3376 -22.3376 -22.3376 -13.7311 -13.7311 -13.7311 -13.7311
    -8.2017  -8.2017  -8.2017  -8.2017  -3.7817  -3.7817  -3.7817  -3.7817
    -3.5637  -3.5637  -3.5637  -3.5637  -1.9916  -1.9916  -1.9916  -1.9916
     0.0909   0.0909   0.0909   0.0909   1.2540   1.2540   1.2541   1.2541

     occupation numbers 
     1.0000   1.0000   1.0000   1.0000   1.0000   1.0000   1.0000   1.0000
     1.0000   1.0000   1.0000   1.0000   1.0000   1.0000   1.0000   1.0000
     1.0000   1.0000   1.0000   1.0000   1.0000   1.0000   1.0000   1.0000
     1.0000   1.0000   1.0000   1.0000   1.0000   1.0000   1.0000   1.0000
     1.0000   1.0000   1.0000   1.0000   1.0000   1.0000   1.0000   1.0000
     0.0000   0.0000   0.0000   0.0000   0.0000   0.0000   0.0000   0.0000

          k = 0.1250 0.0000 0.0000 ( 19622 PWs)   bands (ev):

   -22.4145 -22.4145 -22.4096 -22.4096 -22.4056 -22.4056 -22.4024 -22.4024
   -22.3916 -22.3916 -22.3623 -22.3623 -22.3478 -22.3478 -22.3463 -22.3463
   -22.3317 -22.3317 -22.3314 -22.3314 -14.5424 -14.5424 -13.2223 -13.2223
    -8.0439  -8.0439  -6.4596  -6.4596  -4.8844  -4.8844  -4.6224  -4.6224
    -4.2612  -4.2612  -3.1705  -3.1705  -2.8073  -2.8073  -1.8431  -1.8431
     0.6125   0.6125   1.8021   1.8021   1.9273   1.9273   2.1499   2.1499

     occupation numbers 
     1.0000   1.0000   1.0000   1.0000   1.0000   1.0000   1.0000   1.0000
     1.0000   1.0000   1.0000   1.0000   1.0000   1.0000   1.0000   1.0000
     1.0000   1.0000   1.0000   1.0000   1.0000   1.0000   1.0000   1.0000
     1.0000   1.0000   1.0000   1.0000   1.0000   1.0000   1.0000   1.0000
     1.0000   1.0000   1.0000   1.0000   1.0000   1.0000   1.0000   1.0000
     0.0000   0.0000   0.0000   0.0000   0.0000   0.0000   0.0000   0.0000

          k = 0.1250 0.0000-0.1038 ( 19598 PWs)   bands (ev):

   -22.4145 -22.4145 -22.4096 -22.4096 -22.4056 -22.4056 -22.4024 -22.4024
   -22.3916 -22.3916 -22.3623 -22.3623 -22.3478 -22.3478 -22.3463 -22.3463
   -22.3317 -22.3317 -22.3314 -22.3314 -14.5424 -14.5424 -13.2223 -13.2223
    -8.0439  -8.0439  -6.4596  -6.4596  -4.8844  -4.8844  -4.6224  -4.6224
    -4.2612  -4.2612  -3.1705  -3.1705  -2.8073  -2.8073  -1.8431  -1.8431
     0.6124   0.6124   1.8021   1.8021   1.9273   1.9273   2.1506   2.1506

     occupation numbers 
     1.0000   1.0000   1.0000   1.0000   1.0000   1.0000   1.0000   1.0000
     1.0000   1.0000   1.0000   1.0000   1.0000   1.0000   1.0000   1.0000
     1.0000   1.0000   1.0000   1.0000   1.0000   1.0000   1.0000   1.0000
     1.0000   1.0000   1.0000   1.0000   1.0000   1.0000   1.0000   1.0000
     1.0000   1.0000   1.0000   1.0000   1.0000   1.0000   1.0000   1.0000
     0.0000   0.0000   0.0000   0.0000   0.0000   0.0000   0.0000   0.0000

          k = 0.1250 0.1239 0.0000 ( 19651 PWs)   bands (ev):

   -22.4136 -22.4136 -22.4104 -22.4104 -22.4046 -22.4046 -22.4032 -22.4032
   -22.3898 -22.3898 -22.3630 -22.3630 -22.3480 -22.3480 -22.3450 -22.3450
   -22.3334 -22.3334 -22.3310 -22.3310 -14.4736 -14.4736 -13.2329 -13.2329
    -8.1090  -8.1090  -6.6549  -6.6549  -4.9141  -4.9141  -4.7937  -4.7937
    -3.8238  -3.8238  -3.4527  -3.4527  -2.4107  -2.4107  -1.8998  -1.8998
     0.7303   0.7303   1.2076   1.2076   1.7910   1.7910   2.4162   2.4162

     occupation numbers 
     1.0000   1.0000   1.0000   1.0000   1.0000   1.0000   1.0000   1.0000
     1.0000   1.0000   1.0000   1.0000   1.0000   1.0000   1.0000   1.0000
     1.0000   1.0000   1.0000   1.0000   1.0000   1.0000   1.0000   1.0000
     1.0000   1.0000   1.0000   1.0000   1.0000   1.0000   1.0000   1.0000
     1.0000   1.0000   1.0000   1.0000   1.0000   1.0000   1.0000   1.0000
     0.0000   0.0000   0.0000   0.0000   0.0000   0.0000   0.0000   0.0000

          k = 0.1250 0.1239-0.1038 ( 19628 PWs)   bands (ev):

   -22.4136 -22.4136 -22.4104 -22.4104 -22.4046 -22.4046 -22.4032 -22.4032
   -22.3898 -22.3898 -22.3630 -22.3630 -22.3479 -22.3479 -22.3450 -22.3450
   -22.3334 -22.3334 -22.3310 -22.3310 -14.4736 -14.4736 -13.2329 -13.2329
    -8.1090  -8.1090  -6.6549  -6.6549  -4.9141  -4.9141  -4.7937  -4.7937
    -3.8238  -3.8238  -3.4527  -3.4527  -2.4107  -2.4107  -1.8998  -1.8998
     0.7302   0.7302   1.2076   1.2076   1.7910   1.7910   2.4168   2.4168

     occupation numbers 
     1.0000   1.0000   1.0000   1.0000   1.0000   1.0000   1.0000   1.0000
     1.0000   1.0000   1.0000   1.0000   1.0000   1.0000   1.0000   1.0000
     1.0000   1.0000   1.0000   1.0000   1.0000   1.0000   1.0000   1.0000
     1.0000   1.0000   1.0000   1.0000   1.0000   1.0000   1.0000   1.0000
     1.0000   1.0000   1.0000   1.0000   1.0000   1.0000   1.0000   1.0000
     0.0000   0.0000   0.0000   0.0000   0.0000   0.0000   0.0000   0.0000

          k = 0.1250 0.2477 0.0000 ( 19678 PWs)   bands (ev):

   -22.4121 -22.4121 -22.4119 -22.4119 -22.4049 -22.4049 -22.4027 -22.4027
   -22.3847 -22.3847 -22.3649 -22.3649 -22.3473 -22.3473 -22.3424 -22.3424
   -22.3361 -22.3361 -22.3316 -22.3316 -14.2786 -14.2786 -13.2876 -13.2876
    -8.2517  -8.2517  -7.1449  -7.1449  -5.0062  -5.0062  -4.5409  -4.5409
    -3.6298  -3.6298  -3.3663  -3.3663  -2.1064  -2.1064  -2.0116  -2.0116
     0.5735   0.5735   1.0342   1.0342   1.2213   1.2213   2.0621   2.0621

     occupation numbers 
     1.0000   1.0000   1.0000   1.0000   1.0000   1.0000   1.0000   1.0000
     1.0000   1.0000   1.0000   1.0000   1.0000   1.0000   1.0000   1.0000
     1.0000   1.0000   1.0000   1.0000   1.0000   1.0000   1.0000   1.0000
     1.0000   1.0000   1.0000   1.0000   1.0000   1.0000   1.0000   1.0000
     1.0000   1.0000   1.0000   1.0000   1.0000   1.0000   1.0000   1.0000
     0.0000   0.0000   0.0000   0.0000   0.0000   0.0000   0.0000   0.0000

          k = 0.1250 0.2477-0.1038 ( 19670 PWs)   bands (ev):

   -22.4121 -22.4121 -22.4119 -22.4119 -22.4049 -22.4049 -22.4027 -22.4027
   -22.3847 -22.3847 -22.3649 -22.3649 -22.3473 -22.3473 -22.3424 -22.3424
   -22.3361 -22.3361 -22.3316 -22.3316 -14.2786 -14.2786 -13.2876 -13.2876
    -8.2517  -8.2517  -7.1449  -7.1449  -5.0062  -5.0062  -4.5409  -4.5409
    -3.6298  -3.6298  -3.3663  -3.3663  -2.1064  -2.1064  -2.0116  -2.0116
     0.5735   0.5735   1.0341   1.0341   1.2213   1.2213   2.0621   2.0621

     occupation numbers 
     1.0000   1.0000   1.0000   1.0000   1.0000   1.0000   1.0000   1.0000
     1.0000   1.0000   1.0000   1.0000   1.0000   1.0000   1.0000   1.0000
     1.0000   1.0000   1.0000   1.0000   1.0000   1.0000   1.0000   1.0000
     1.0000   1.0000   1.0000   1.0000   1.0000   1.0000   1.0000   1.0000
     1.0000   1.0000   1.0000   1.0000   1.0000   1.0000   1.0000   1.0000
     0.0000   0.0000   0.0000   0.0000   0.0000   0.0000   0.0000   0.0000

          k = 0.1250 0.3716 0.0000 ( 19705 PWs)   bands (ev):

   -22.4135 -22.4135 -22.4122 -22.4122 -22.4045 -22.4045 -22.4016 -22.4016
   -22.3782 -22.3782 -22.3680 -22.3680 -22.3454 -22.3454 -22.3392 -22.3392
   -22.3392 -22.3392 -22.3334 -22.3334 -13.9944 -13.9944 -13.4334 -13.4334
    -8.3097  -8.3097  -7.7052  -7.7052  -4.7581  -4.7581  -4.1952  -4.1952
    -3.7809  -3.7809  -3.3201  -3.3201  -2.0840  -2.0840  -1.9904  -1.9904
     0.3670   0.3670   0.4081   0.4081   1.5702   1.5702   1.6508   1.6508

     occupation numbers 
     1.0000   1.0000   1.0000   1.0000   1.0000   1.0000   1.0000   1.0000
     1.0000   1.0000   1.0000   1.0000   1.0000   1.0000   1.0000   1.0000
     1.0000   1.0000   1.0000   1.0000   1.0000   1.0000   1.0000   1.0000
     1.0000   1.0000   1.0000   1.0000   1.0000   1.0000   1.0000   1.0000
     1.0000   1.0000   1.0000   1.0000   1.0000   1.0000   1.0000   1.0000
     0.0000   0.0000   0.0000   0.0000   0.0000   0.0000   0.0000   0.0000

          k = 0.1250 0.3716-0.1038 ( 19722 PWs)   bands (ev):

   -22.4135 -22.4135 -22.4122 -22.4122 -22.4045 -22.4045 -22.4016 -22.4016
   -22.3782 -22.3782 -22.3680 -22.3680 -22.3454 -22.3454 -22.3392 -22.3392
   -22.3392 -22.3392 -22.3334 -22.3334 -13.9944 -13.9944 -13.4334 -13.4334
    -8.3097  -8.3097  -7.7052  -7.7052  -4.7581  -4.7581  -4.1952  -4.1952
    -3.7809  -3.7809  -3.3201  -3.3201  -2.0840  -2.0840  -1.9904  -1.9904
     0.3670   0.3670   0.4081   0.4081   1.5702   1.5702   1.6508   1.6508

     occupation numbers 
     1.0000   1.0000   1.0000   1.0000   1.0000   1.0000   1.0000   1.0000
     1.0000   1.0000   1.0000   1.0000   1.0000   1.0000   1.0000   1.0000
     1.0000   1.0000   1.0000   1.0000   1.0000   1.0000   1.0000   1.0000
     1.0000   1.0000   1.0000   1.0000   1.0000   1.0000   1.0000   1.0000
     1.0000   1.0000   1.0000   1.0000   1.0000   1.0000   1.0000   1.0000
     0.0000   0.0000   0.0000   0.0000   0.0000   0.0000   0.0000   0.0000

          k = 0.1250-0.4954 0.0000 ( 19696 PWs)   bands (ev):

   -22.4136 -22.4136 -22.4136 -22.4136 -22.4025 -22.4025 -22.4024 -22.4024
   -22.3723 -22.3723 -22.3723 -22.3723 -22.3425 -22.3425 -22.3425 -22.3425
   -22.3361 -22.3361 -22.3361 -22.3361 -13.6859 -13.6859 -13.6859 -13.6859
    -8.1317  -8.1317  -8.1317  -8.1317  -4.3148  -4.3148  -4.3148  -4.3148
    -3.6471  -3.6471  -3.6471  -3.6471  -1.9870  -1.9870  -1.9869  -1.9869
     0.1726   0.1726   0.1727   0.1727   1.8120   1.8120   1.8120   1.8120

     occupation numbers 
     1.0000   1.0000   1.0000   1.0000   1.0000   1.0000   1.0000   1.0000
     1.0000   1.0000   1.0000   1.0000   1.0000   1.0000   1.0000   1.0000
     1.0000   1.0000   1.0000   1.0000   1.0000   1.0000   1.0000   1.0000
     1.0000   1.0000   1.0000   1.0000   1.0000   1.0000   1.0000   1.0000
     1.0000   1.0000   1.0000   1.0000   1.0000   1.0000   1.0000   1.0000
     0.0000   0.0000   0.0000   0.0000   0.0000   0.0000   0.0000   0.0000

          k = 0.1250-0.4954-0.1038 ( 19704 PWs)   bands (ev):

   -22.4136 -22.4136 -22.4136 -22.4136 -22.4025 -22.4025 -22.4024 -22.4024
   -22.3723 -22.3723 -22.3723 -22.3723 -22.3425 -22.3425 -22.3425 -22.3425
   -22.3361 -22.3361 -22.3361 -22.3361 -13.6859 -13.6859 -13.6859 -13.6859
    -8.1317  -8.1317  -8.1317  -8.1317  -4.3148  -4.3148  -4.3148  -4.3148
    -3.6471  -3.6471  -3.6471  -3.6471  -1.9870  -1.9870  -1.9869  -1.9869
     0.1726   0.1726   0.1727   0.1727   1.8120   1.8120   1.8120   1.8120

     occupation numbers 
     1.0000   1.0000   1.0000   1.0000   1.0000   1.0000   1.0000   1.0000
     1.0000   1.0000   1.0000   1.0000   1.0000   1.0000   1.0000   1.0000
     1.0000   1.0000   1.0000   1.0000   1.0000   1.0000   1.0000   1.0000
     1.0000   1.0000   1.0000   1.0000   1.0000   1.0000   1.0000   1.0000
     1.0000   1.0000   1.0000   1.0000   1.0000   1.0000   1.0000   1.0000
     0.0000   0.0000   0.0000   0.0000   0.0000   0.0000   0.0000   0.0000

          k = 0.2500 0.0000 0.0000 ( 19680 PWs)   bands (ev):

   -22.4125 -22.4125 -22.4117 -22.4117 -22.4057 -22.4057 -22.4026 -22.4026
   -22.3854 -22.3854 -22.3640 -22.3640 -22.3471 -22.3471 -22.3434 -22.3434
   -22.3349 -22.3349 -22.3320 -22.3320 -14.3212 -14.3212 -13.2480 -13.2480
    -8.4121  -8.4121  -7.1950  -7.1950  -4.6868  -4.6868  -4.3371  -4.3371
    -3.9308  -3.9308  -3.0397  -3.0397  -2.2372  -2.2372  -2.0544  -2.0544
     0.8560   0.8560   0.9218   0.9218   1.6594   1.6594   1.9747   1.9747

     occupation numbers 
     1.0000   1.0000   1.0000   1.0000   1.0000   1.0000   1.0000   1.0000
     1.0000   1.0000   1.0000   1.0000   1.0000   1.0000   1.0000   1.0000
     1.0000   1.0000   1.0000   1.0000   1.0000   1.0000   1.0000   1.0000
     1.0000   1.0000   1.0000   1.0000   1.0000   1.0000   1.0000   1.0000
     1.0000   1.0000   1.0000   1.0000   1.0000   1.0000   1.0000   1.0000
     0.0000   0.0000   0.0000   0.0000   0.0000   0.0000   0.0000   0.0000

          k = 0.2500 0.0000-0.1038 ( 19680 PWs)   bands (ev):

   -22.4125 -22.4125 -22.4117 -22.4117 -22.4057 -22.4057 -22.4026 -22.4026
   -22.3854 -22.3854 -22.3640 -22.3640 -22.3471 -22.3471 -22.3434 -22.3434
   -22.3348 -22.3348 -22.3320 -22.3320 -14.3212 -14.3212 -13.2480 -13.2480
    -8.4121  -8.4121  -7.1950  -7.1950  -4.6868  -4.6868  -4.3371  -4.3371
    -3.9308  -3.9308  -3.0397  -3.0397  -2.2372  -2.2372  -2.0544  -2.0544
     0.8560   0.8560   0.9217   0.9217   1.6594   1.6594   1.9747   1.9747

     occupation numbers 
     1.0000   1.0000   1.0000   1.0000   1.0000   1.0000   1.0000   1.0000
     1.0000   1.0000   1.0000   1.0000   1.0000   1.0000   1.0000   1.0000
     1.0000   1.0000   1.0000   1.0000   1.0000   1.0000   1.0000   1.0000
     1.0000   1.0000   1.0000   1.0000   1.0000   1.0000   1.0000   1.0000
     1.0000   1.0000   1.0000   1.0000   1.0000   1.0000   1.0000   1.0000
     0.0000   0.0000   0.0000   0.0000   0.0000   0.0000   0.0000   0.0000

          k = 0.2500 0.1239 0.0000 ( 19683 PWs)   bands (ev):

   -22.4137 -22.4137 -22.4125 -22.4125 -22.4050 -22.4050 -22.4015 -22.4015
   -22.3839 -22.3839 -22.3646 -22.3646 -22.3477 -22.3477 -22.3419 -22.3419
   -22.3363 -22.3363 -22.3314 -22.3314 -14.2578 -14.2578 -13.2504 -13.2504
    -8.3704  -8.3704  -7.2353  -7.2353  -4.9607  -4.9607  -4.6358  -4.6358
    -3.4386  -3.4386  -3.3951  -3.3951  -2.2127  -2.2127  -1.9718  -1.9718
     0.7686   0.7686   0.9754   0.9754   1.4669   1.4669   2.0825   2.0825

     occupation numbers 
     1.0000   1.0000   1.0000   1.0000   1.0000   1.0000   1.0000   1.0000
     1.0000   1.0000   1.0000   1.0000   1.0000   1.0000   1.0000   1.0000
     1.0000   1.0000   1.0000   1.0000   1.0000   1.0000   1.0000   1.0000
     1.0000   1.0000   1.0000   1.0000   1.0000   1.0000   1.0000   1.0000
     1.0000   1.0000   1.0000   1.0000   1.0000   1.0000   1.0000   1.0000
     0.0000   0.0000   0.0000   0.0000   0.0000   0.0000   0.0000   0.0000

          k = 0.2500 0.1239-0.1038 ( 19680 PWs)   bands (ev):

   -22.4137 -22.4137 -22.4125 -22.4125 -22.4050 -22.4050 -22.4015 -22.4015
   -22.3839 -22.3839 -22.3646 -22.3646 -22.3477 -22.3477 -22.3419 -22.3419
   -22.3363 -22.3363 -22.3314 -22.3314 -14.2578 -14.2578 -13.2504 -13.2504
    -8.3704  -8.3704  -7.2353  -7.2353  -4.9607  -4.9607  -4.6358  -4.6358
    -3.4386  -3.4386  -3.3951  -3.3951  -2.2127  -2.2127  -1.9718  -1.9718
     0.7686   0.7686   0.9754   0.9754   1.4669   1.4669   2.0825   2.0825

     occupation numbers 
     1.0000   1.0000   1.0000   1.0000   1.0000   1.0000   1.0000   1.0000
     1.0000   1.0000   1.0000   1.0000   1.0000   1.0000   1.0000   1.0000
     1.0000   1.0000   1.0000   1.0000   1.0000   1.0000   1.0000   1.0000
     1.0000   1.0000   1.0000   1.0000   1.0000   1.0000   1.0000   1.0000
     1.0000   1.0000   1.0000   1.0000   1.0000   1.0000   1.0000   1.0000
     0.0000   0.0000   0.0000   0.0000   0.0000   0.0000   0.0000   0.0000

          k = 0.2500 0.2477 0.0000 ( 19690 PWs)   bands (ev):

   -22.4164 -22.4164 -22.4154 -22.4154 -22.4025 -22.4025 -22.3990 -22.3990
   -22.3801 -22.3801 -22.3662 -22.3662 -22.3478 -22.3478 -22.3392 -22.3392
   -22.3388 -22.3388 -22.3312 -22.3312 -14.0806 -14.0806 -13.2781 -13.2781
    -8.2715  -8.2715  -7.3910  -7.3910  -5.4824  -5.4824  -4.5045  -4.5045
    -3.9481  -3.9481  -3.1739  -3.1739  -2.6223  -2.6223  -1.8220  -1.8220
     0.5560   0.5560   1.2307   1.2307   1.5139   1.5139   2.4937   2.4937

     occupation numbers 
     1.0000   1.0000   1.0000   1.0000   1.0000   1.0000   1.0000   1.0000
     1.0000   1.0000   1.0000   1.0000   1.0000   1.0000   1.0000   1.0000
     1.0000   1.0000   1.0000   1.0000   1.0000   1.0000   1.0000   1.0000
     1.0000   1.0000   1.0000   1.0000   1.0000   1.0000   1.0000   1.0000
     1.0000   1.0000   1.0000   1.0000   1.0000   1.0000   1.0000   1.0000
     0.0000   0.0000   0.0000   0.0000   0.0000   0.0000   0.0000   0.0000

          k = 0.2500 0.2477-0.1038 ( 19692 PWs)   bands (ev):

   -22.4164 -22.4164 -22.4154 -22.4154 -22.4025 -22.4025 -22.3990 -22.3990
   -22.3801 -22.3801 -22.3662 -22.3662 -22.3478 -22.3478 -22.3392 -22.3392
   -22.3388 -22.3388 -22.3312 -22.3312 -14.0806 -14.0806 -13.2781 -13.2781
    -8.2715  -8.2715  -7.3910  -7.3910  -5.4824  -5.4824  -4.5045  -4.5045
    -3.9481  -3.9481  -3.1739  -3.1739  -2.6223  -2.6223  -1.8220  -1.8220
     0.5560   0.5560   1.2307   1.2307   1.5138   1.5138   2.4938   2.4938

     occupation numbers 
     1.0000   1.0000   1.0000   1.0000   1.0000   1.0000   1.0000   1.0000
     1.0000   1.0000   1.0000   1.0000   1.0000   1.0000   1.0000   1.0000
     1.0000   1.0000   1.0000   1.0000   1.0000   1.0000   1.0000   1.0000
     1.0000   1.0000   1.0000   1.0000   1.0000   1.0000   1.0000   1.0000
     1.0000   1.0000   1.0000   1.0000   1.0000   1.0000   1.0000   1.0000
     0.0000   0.0000   0.0000   0.0000   0.0000   0.0000   0.0000   0.0000

          k = 0.2500 0.3716 0.0000 ( 19719 PWs)   bands (ev):

   -22.4191 -22.4191 -22.4185 -22.4185 -22.3995 -22.3995 -22.3972 -22.3972
   -22.3755 -22.3755 -22.3685 -22.3685 -22.3465 -22.3465 -22.3415 -22.3415
   -22.3363 -22.3363 -22.3321 -22.3321 -13.8298 -13.8298 -13.3767 -13.3767
    -8.1477  -8.1477  -7.6701  -7.6701  -5.5452  -5.5452  -4.5966  -4.5966
    -4.1403  -4.1403  -3.3837  -3.3837  -2.8563  -2.8563  -2.0867  -2.0867
     0.5964   0.5964   1.6740   1.6740   1.9691   1.9691   2.3179   2.3179

     occupation numbers 
     1.0000   1.0000   1.0000   1.0000   1.0000   1.0000   1.0000   1.0000
     1.0000   1.0000   1.0000   1.0000   1.0000   1.0000   1.0000   1.0000
     1.0000   1.0000   1.0000   1.0000   1.0000   1.0000   1.0000   1.0000
     1.0000   1.0000   1.0000   1.0000   1.0000   1.0000   1.0000   1.0000
     1.0000   1.0000   1.0000   1.0000   1.0000   1.0000   1.0000   1.0000
     0.0000   0.0000   0.0000   0.0000   0.0000   0.0000   0.0000   0.0000

          k = 0.2500 0.3716-0.1038 ( 19730 PWs)   bands (ev):

   -22.4191 -22.4191 -22.4186 -22.4186 -22.3995 -22.3995 -22.3972 -22.3972
   -22.3755 -22.3755 -22.3685 -22.3685 -22.3465 -22.3465 -22.3415 -22.3415
   -22.3363 -22.3363 -22.3321 -22.3321 -13.8298 -13.8298 -13.3767 -13.3767
    -8.1477  -8.1477  -7.6701  -7.6701  -5.5452  -5.5452  -4.5966  -4.5966
    -4.1403  -4.1403  -3.3837  -3.3837  -2.8563  -2.8563  -2.0867  -2.0867
     0.5964   0.5964   1.6740   1.6740   1.9691   1.9691   2.3179   2.3179

     occupation numbers 
     1.0000   1.0000   1.0000   1.0000   1.0000   1.0000   1.0000   1.0000
     1.0000   1.0000   1.0000   1.0000   1.0000   1.0000   1.0000   1.0000
     1.0000   1.0000   1.0000   1.0000   1.0000   1.0000   1.0000   1.0000
     1.0000   1.0000   1.0000   1.0000   1.0000   1.0000   1.0000   1.0000
     1.0000   1.0000   1.0000   1.0000   1.0000   1.0000   1.0000   1.0000
     0.0000   0.0000   0.0000   0.0000   0.0000   0.0000   0.0000   0.0000

          k = 0.2500-0.4954 0.0000 ( 19718 PWs)   bands (ev):

   -22.4200 -22.4200 -22.4200 -22.4200 -22.3974 -22.3974 -22.3974 -22.3974
   -22.3715 -22.3715 -22.3715 -22.3715 -22.3442 -22.3442 -22.3442 -22.3442
   -22.3338 -22.3338 -22.3338 -22.3338 -13.5715 -13.5715 -13.5714 -13.5714
    -7.9562  -7.9562  -7.9562  -7.9562  -5.1687  -5.1687  -5.1687  -5.1687
    -3.7841  -3.7841  -3.7841  -3.7841  -2.5830  -2.5830  -2.5830  -2.5830
     1.1618   1.1618   1.1618   1.1618   2.3329   2.3329   2.3329   2.3329

     occupation numbers 
     1.0000   1.0000   1.0000   1.0000   1.0000   1.0000   1.0000   1.0000
     1.0000   1.0000   1.0000   1.0000   1.0000   1.0000   1.0000   1.0000
     1.0000   1.0000   1.0000   1.0000   1.0000   1.0000   1.0000   1.0000
     1.0000   1.0000   1.0000   1.0000   1.0000   1.0000   1.0000   1.0000
     1.0000   1.0000   1.0000   1.0000   1.0000   1.0000   1.0000   1.0000
     0.0000   0.0000   0.0000   0.0000   0.0000   0.0000   0.0000   0.0000

          k = 0.2500-0.4954-0.1038 ( 19712 PWs)   bands (ev):

   -22.4200 -22.4200 -22.4200 -22.4200 -22.3974 -22.3974 -22.3974 -22.3974
   -22.3715 -22.3715 -22.3715 -22.3715 -22.3442 -22.3442 -22.3441 -22.3441
   -22.3338 -22.3338 -22.3338 -22.3338 -13.5715 -13.5715 -13.5714 -13.5714
    -7.9562  -7.9562  -7.9562  -7.9562  -5.1687  -5.1687  -5.1687  -5.1687
    -3.7841  -3.7841  -3.7841  -3.7841  -2.5830  -2.5830  -2.5830  -2.5830
     1.1617   1.1617   1.1618   1.1618   2.3329   2.3329   2.3329   2.3329

     occupation numbers 
     1.0000   1.0000   1.0000   1.0000   1.0000   1.0000   1.0000   1.0000
     1.0000   1.0000   1.0000   1.0000   1.0000   1.0000   1.0000   1.0000
     1.0000   1.0000   1.0000   1.0000   1.0000   1.0000   1.0000   1.0000
     1.0000   1.0000   1.0000   1.0000   1.0000   1.0000   1.0000   1.0000
     1.0000   1.0000   1.0000   1.0000   1.0000   1.0000   1.0000   1.0000
     0.0000   0.0000   0.0000   0.0000   0.0000   0.0000   0.0000   0.0000

          k = 0.3750 0.0000 0.0000 ( 19678 PWs)   bands (ev):

   -22.4152 -22.4152 -22.4139 -22.4139 -22.4032 -22.4032 -22.4004 -22.4004
   -22.3785 -22.3785 -22.3671 -22.3671 -22.3455 -22.3455 -22.3393 -22.3393
   -22.3390 -22.3390 -22.3331 -22.3331 -13.9973 -13.9973 -13.3775 -13.3775
    -8.6112  -8.6112  -7.9332  -7.9332  -4.3398  -4.3398  -4.0257  -4.0257
    -3.5684  -3.5684  -3.0875  -3.0875  -2.2108  -2.2108  -1.7615  -1.7615
     0.1121   0.1121   1.2526   1.2526   1.2770   1.2770   1.4458   1.4458

     occupation numbers 
     1.0000   1.0000   1.0000   1.0000   1.0000   1.0000   1.0000   1.0000
     1.0000   1.0000   1.0000   1.0000   1.0000   1.0000   1.0000   1.0000
     1.0000   1.0000   1.0000   1.0000   1.0000   1.0000   1.0000   1.0000
     1.0000   1.0000   1.0000   1.0000   1.0000   1.0000   1.0000   1.0000
     1.0000   1.0000   1.0000   1.0000   1.0000   1.0000   1.0000   1.0000
     0.0000   0.0000   0.0000   0.0000   0.0000   0.0000   0.0000   0.0000

          k = 0.3750 0.0000-0.1038 ( 19676 PWs)   bands (ev):

   -22.4152 -22.4152 -22.4139 -22.4139 -22.4032 -22.4032 -22.4004 -22.4004
   -22.3785 -22.3785 -22.3671 -22.3671 -22.3455 -22.3455 -22.3393 -22.3393
   -22.3390 -22.3390 -22.3331 -22.3331 -13.9973 -13.9973 -13.3775 -13.3775
    -8.6112  -8.6112  -7.9332  -7.9332  -4.3398  -4.3398  -4.0257  -4.0257
    -3.5684  -3.5684  -3.0875  -3.0875  -2.2108  -2.2108  -1.7615  -1.7615
     0.1121   0.1121   1.2526   1.2526   1.2770   1.2770   1.4458   1.4458

     occupation numbers 
     1.0000   1.0000   1.0000   1.0000   1.0000   1.0000   1.0000   1.0000
     1.0000   1.0000   1.0000   1.0000   1.0000   1.0000   1.0000   1.0000
     1.0000   1.0000   1.0000   1.0000   1.0000   1.0000   1.0000   1.0000
     1.0000   1.0000   1.0000   1.0000   1.0000   1.0000   1.0000   1.0000
     1.0000   1.0000   1.0000   1.0000   1.0000   1.0000   1.0000   1.0000
     0.0000   0.0000   0.0000   0.0000   0.0000   0.0000   0.0000   0.0000

          k = 0.3750 0.1239 0.0000 ( 19711 PWs)   bands (ev):

   -22.4168 -22.4168 -22.4158 -22.4158 -22.4016 -22.4016 -22.3990 -22.3990
   -22.3776 -22.3776 -22.3675 -22.3675 -22.3462 -22.3462 -22.3400 -22.3400
   -22.3381 -22.3381 -22.3325 -22.3325 -13.9448 -13.9448 -13.3636 -13.3636
    -8.5245  -8.5245  -7.8901  -7.8901  -4.6762  -4.6762  -4.3467  -4.3467
    -3.4693  -3.4693  -3.3523  -3.3523  -2.2505  -2.2505  -1.9807  -1.9807
     0.6135   0.6135   0.6933   0.6933   1.6237   1.6237   1.6841   1.6841

     occupation numbers 
     1.0000   1.0000   1.0000   1.0000   1.0000   1.0000   1.0000   1.0000
     1.0000   1.0000   1.0000   1.0000   1.0000   1.0000   1.0000   1.0000
     1.0000   1.0000   1.0000   1.0000   1.0000   1.0000   1.0000   1.0000
     1.0000   1.0000   1.0000   1.0000   1.0000   1.0000   1.0000   1.0000
     1.0000   1.0000   1.0000   1.0000   1.0000   1.0000   1.0000   1.0000
     0.0000   0.0000   0.0000   0.0000   0.0000   0.0000   0.0000   0.0000

          k = 0.3750 0.1239-0.1038 ( 19714 PWs)   bands (ev):

   -22.4168 -22.4168 -22.4158 -22.4158 -22.4016 -22.4016 -22.3990 -22.3990
   -22.3776 -22.3776 -22.3675 -22.3675 -22.3462 -22.3462 -22.3400 -22.3400
   -22.3381 -22.3381 -22.3325 -22.3325 -13.9448 -13.9448 -13.3636 -13.3636
    -8.5245  -8.5245  -7.8901  -7.8901  -4.6762  -4.6762  -4.3467  -4.3467
    -3.4693  -3.4693  -3.3523  -3.3523  -2.2505  -2.2505  -1.9807  -1.9807
     0.6135   0.6135   0.6933   0.6933   1.6237   1.6237   1.6841   1.6841

     occupation numbers 
     1.0000   1.0000   1.0000   1.0000   1.0000   1.0000   1.0000   1.0000
     1.0000   1.0000   1.0000   1.0000   1.0000   1.0000   1.0000   1.0000
     1.0000   1.0000   1.0000   1.0000   1.0000   1.0000   1.0000   1.0000
     1.0000   1.0000   1.0000   1.0000   1.0000   1.0000   1.0000   1.0000
     1.0000   1.0000   1.0000   1.0000   1.0000   1.0000   1.0000   1.0000
     0.0000   0.0000   0.0000   0.0000   0.0000   0.0000   0.0000   0.0000

          k = 0.3750 0.2477 0.0000 ( 19709 PWs)   bands (ev):

   -22.4205 -22.4205 -22.4201 -22.4201 -22.3980 -22.3980 -22.3959 -22.3959
   -22.3756 -22.3756 -22.3685 -22.3685 -22.3467 -22.3467 -22.3417 -22.3417
   -22.3358 -22.3358 -22.3316 -22.3316 -13.8026 -13.8026 -13.3406 -13.3406
    -8.2881  -8.2881  -7.7947  -7.7947  -5.4412  -5.4412  -4.4540  -4.4540
    -4.1601  -4.1601  -3.4232  -3.4232  -2.9339  -2.9339  -2.0970  -2.0970
     0.6609   0.6609   1.8544   1.8544   2.0348   2.0348   2.2637   2.2637

     occupation numbers 
     1.0000   1.0000   1.0000   1.0000   1.0000   1.0000   1.0000   1.0000
     1.0000   1.0000   1.0000   1.0000   1.0000   1.0000   1.0000   1.0000
     1.0000   1.0000   1.0000   1.0000   1.0000   1.0000   1.0000   1.0000
     1.0000   1.0000   1.0000   1.0000   1.0000   1.0000   1.0000   1.0000
     1.0000   1.0000   1.0000   1.0000   1.0000   1.0000   1.0000   1.0000
     0.0000   0.0000   0.0000   0.0000   0.0000   0.0000   0.0000   0.0000

          k = 0.3750 0.2477-0.1038 ( 19726 PWs)   bands (ev):

   -22.4205 -22.4205 -22.4201 -22.4201 -22.3980 -22.3980 -22.3959 -22.3959
   -22.3756 -22.3756 -22.3685 -22.3685 -22.3467 -22.3467 -22.3417 -22.3417
   -22.3358 -22.3358 -22.3316 -22.3316 -13.8026 -13.8026 -13.3406 -13.3406
    -8.2881  -8.2881  -7.7947  -7.7947  -5.4412  -5.4412  -4.4540  -4.4540
    -4.1601  -4.1601  -3.4232  -3.4232  -2.9339  -2.9339  -2.0970  -2.0970
     0.6609   0.6609   1.8544   1.8544   2.0348   2.0348   2.2637   2.2637

     occupation numbers 
     1.0000   1.0000   1.0000   1.0000   1.0000   1.0000   1.0000   1.0000
     1.0000   1.0000   1.0000   1.0000   1.0000   1.0000   1.0000   1.0000
     1.0000   1.0000   1.0000   1.0000   1.0000   1.0000   1.0000   1.0000
     1.0000   1.0000   1.0000   1.0000   1.0000   1.0000   1.0000   1.0000
     1.0000   1.0000   1.0000   1.0000   1.0000   1.0000   1.0000   1.0000
     0.0000   0.0000   0.0000   0.0000   0.0000   0.0000   0.0000   0.0000

          k = 0.3750 0.3716 0.0000 ( 19716 PWs)   bands (ev):

   -22.4243 -22.4243 -22.4242 -22.4242 -22.3947 -22.3947 -22.3934 -22.3934
   -22.3732 -22.3732 -22.3698 -22.3698 -22.3461 -22.3461 -22.3433 -22.3433
   -22.3337 -22.3337 -22.3314 -22.3314 -13.6156 -13.6156 -13.3551 -13.3551
    -7.9921  -7.9921  -7.7350  -7.7350  -5.8317  -5.8317  -5.0165  -5.0165
    -4.4902  -4.4902  -3.8030  -3.8030  -3.0728  -3.0728  -2.5467  -2.5467
     1.3255   1.3255   2.4092   2.4092   2.4991   2.4991   2.7710   2.7710

     occupation numbers 
     1.0000   1.0000   1.0000   1.0000   1.0000   1.0000   1.0000   1.0000
     1.0000   1.0000   1.0000   1.0000   1.0000   1.0000   1.0000   1.0000
     1.0000   1.0000   1.0000   1.0000   1.0000   1.0000   1.0000   1.0000
     1.0000   1.0000   1.0000   1.0000   1.0000   1.0000   1.0000   1.0000
     1.0000   1.0000   1.0000   1.0000   1.0000   1.0000   1.0000   1.0000
     0.0000   0.0000   0.0000   0.0000   0.0000   0.0000   0.0000   0.0000

          k = 0.3750 0.3716-0.1038 ( 19718 PWs)   bands (ev):

   -22.4243 -22.4243 -22.4242 -22.4242 -22.3947 -22.3947 -22.3934 -22.3934
   -22.3732 -22.3732 -22.3698 -22.3698 -22.3461 -22.3461 -22.3433 -22.3433
   -22.3337 -22.3337 -22.3314 -22.3314 -13.6156 -13.6156 -13.3551 -13.3551
    -7.9921  -7.9921  -7.7350  -7.7350  -5.8317  -5.8317  -5.0165  -5.0165
    -4.4902  -4.4902  -3.8030  -3.8030  -3.0728  -3.0728  -2.5467  -2.5467
     1.3255   1.3255   2.4092   2.4092   2.4990   2.4990   2.7710   2.7710

     occupation numbers 
     1.0000   1.0000   1.0000   1.0000   1.0000   1.0000   1.0000   1.0000
     1.0000   1.0000   1.0000   1.0000   1.0000   1.0000   1.0000   1.0000
     1.0000   1.0000   1.0000   1.0000   1.0000   1.0000   1.0000   1.0000
     1.0000   1.0000   1.0000   1.0000   1.0000   1.0000   1.0000   1.0000
     1.0000   1.0000   1.0000   1.0000   1.0000   1.0000   1.0000   1.0000
     0.0000   0.0000   0.0000   0.0000   0.0000   0.0000   0.0000   0.0000

          k = 0.3750-0.4954 0.0000 ( 19754 PWs)   bands (ev):

   -22.4259 -22.4259 -22.4258 -22.4258 -22.3930 -22.3930 -22.3929 -22.3929
   -22.3713 -22.3713 -22.3712 -22.3712 -22.3448 -22.3448 -22.3448 -22.3448
   -22.3321 -22.3321 -22.3321 -22.3321 -13.4484 -13.4484 -13.4484 -13.4484
    -7.7889  -7.7889  -7.7889  -7.7889  -5.6578  -5.6578  -5.6578  -5.6578
    -4.2752  -4.2752  -4.2752  -4.2752  -2.8759  -2.8759  -2.8759  -2.8759
     2.0116   2.0116   2.0116   2.0116   2.7261   2.7261   2.7261   2.7261

     occupation numbers 
     1.0000   1.0000   1.0000   1.0000   1.0000   1.0000   1.0000   1.0000
     1.0000   1.0000   1.0000   1.0000   1.0000   1.0000   1.0000   1.0000
     1.0000   1.0000   1.0000   1.0000   1.0000   1.0000   1.0000   1.0000
     1.0000   1.0000   1.0000   1.0000   1.0000   1.0000   1.0000   1.0000
     1.0000   1.0000   1.0000   1.0000   1.0000   1.0000   1.0000   1.0000
     0.0000   0.0000   0.0000   0.0000   0.0000   0.0000   0.0000   0.0000

          k = 0.3750-0.4954-0.1038 ( 19688 PWs)   bands (ev):

   -22.4259 -22.4259 -22.4258 -22.4258 -22.3929 -22.3929 -22.3929 -22.3929
   -22.3713 -22.3713 -22.3712 -22.3712 -22.3447 -22.3447 -22.3447 -22.3447
   -22.3321 -22.3321 -22.3321 -22.3321 -13.4484 -13.4484 -13.4484 -13.4484
    -7.7889  -7.7889  -7.7889  -7.7889  -5.6578  -5.6578  -5.6578  -5.6578
    -4.2752  -4.2752  -4.2752  -4.2752  -2.8759  -2.8759  -2.8759  -2.8759
     2.0116   2.0116   2.0116   2.0116   2.7261   2.7261   2.7261   2.7261

     occupation numbers 
     1.0000   1.0000   1.0000   1.0000   1.0000   1.0000   1.0000   1.0000
     1.0000   1.0000   1.0000   1.0000   1.0000   1.0000   1.0000   1.0000
     1.0000   1.0000   1.0000   1.0000   1.0000   1.0000   1.0000   1.0000
     1.0000   1.0000   1.0000   1.0000   1.0000   1.0000   1.0000   1.0000
     1.0000   1.0000   1.0000   1.0000   1.0000   1.0000   1.0000   1.0000
     0.0000   0.0000   0.0000   0.0000   0.0000   0.0000   0.0000   0.0000

          k =-0.5000 0.0000 0.0000 ( 19684 PWs)   bands (ev):

   -22.4158 -22.4158 -22.4158 -22.4158 -22.4005 -22.4005 -22.4005 -22.4005
   -22.3721 -22.3721 -22.3720 -22.3720 -22.3428 -22.3428 -22.3427 -22.3427
   -22.3356 -22.3356 -22.3355 -22.3355 -13.6482 -13.6482 -13.6481 -13.6481
    -8.4489  -8.4489  -8.4489  -8.4489  -4.0049  -4.0049  -4.0049  -4.0049
    -3.3104  -3.3104  -3.3104  -3.3104  -1.9554  -1.9554  -1.9554  -1.9554
     0.3875   0.3875   0.3876   0.3876   1.3572   1.3572   1.3572   1.3572

     occupation numbers 
     1.0000   1.0000   1.0000   1.0000   1.0000   1.0000   1.0000   1.0000
     1.0000   1.0000   1.0000   1.0000   1.0000   1.0000   1.0000   1.0000
     1.0000   1.0000   1.0000   1.0000   1.0000   1.0000   1.0000   1.0000
     1.0000   1.0000   1.0000   1.0000   1.0000   1.0000   1.0000   1.0000
     1.0000   1.0000   1.0000   1.0000   1.0000   1.0000   1.0000   1.0000
     0.0000   0.0000   0.0000   0.0000   0.0000   0.0000   0.0000   0.0000

          k =-0.5000 0.0000-0.1038 ( 19680 PWs)   bands (ev):

   -22.4158 -22.4158 -22.4158 -22.4158 -22.4005 -22.4005 -22.4005 -22.4005
   -22.3721 -22.3721 -22.3720 -22.3720 -22.3428 -22.3428 -22.3428 -22.3428
   -22.3356 -22.3356 -22.3355 -22.3355 -13.6482 -13.6482 -13.6481 -13.6481
    -8.4489  -8.4489  -8.4489  -8.4489  -4.0049  -4.0049  -4.0049  -4.0049
    -3.3104  -3.3104  -3.3104  -3.3104  -1.9554  -1.9554  -1.9554  -1.9554
     0.3875   0.3875   0.3876   0.3876   1.3572   1.3572   1.3572   1.3572

     occupation numbers 
     1.0000   1.0000   1.0000   1.0000   1.0000   1.0000   1.0000   1.0000
     1.0000   1.0000   1.0000   1.0000   1.0000   1.0000   1.0000   1.0000
     1.0000   1.0000   1.0000   1.0000   1.0000   1.0000   1.0000   1.0000
     1.0000   1.0000   1.0000   1.0000   1.0000   1.0000   1.0000   1.0000
     1.0000   1.0000   1.0000   1.0000   1.0000   1.0000   1.0000   1.0000
     0.0000   0.0000   0.0000   0.0000   0.0000   0.0000   0.0000   0.0000

          k =-0.5000 0.1239 0.0000 ( 19706 PWs)   bands (ev):

   -22.4177 -22.4177 -22.4177 -22.4177 -22.3990 -22.3990 -22.3989 -22.3989
   -22.3719 -22.3719 -22.3719 -22.3719 -22.3435 -22.3435 -22.3435 -22.3435
   -22.3347 -22.3347 -22.3347 -22.3347 -13.6133 -13.6133 -13.6132 -13.6132
    -8.3676  -8.3676  -8.3676  -8.3676  -4.2809  -4.2809  -4.2808  -4.2808
    -3.5702  -3.5702  -3.5702  -3.5702  -2.0792  -2.0792  -2.0792  -2.0792
     0.4655   0.4655   0.4655   0.4655   1.9456   1.9456   1.9456   1.9456

     occupation numbers 
     1.0000   1.0000   1.0000   1.0000   1.0000   1.0000   1.0000   1.0000
     1.0000   1.0000   1.0000   1.0000   1.0000   1.0000   1.0000   1.0000
     1.0000   1.0000   1.0000   1.0000   1.0000   1.0000   1.0000   1.0000
     1.0000   1.0000   1.0000   1.0000   1.0000   1.0000   1.0000   1.0000
     1.0000   1.0000   1.0000   1.0000   1.0000   1.0000   1.0000   1.0000
     0.0000   0.0000   0.0000   0.0000   0.0000   0.0000   0.0000   0.0000

          k =-0.5000 0.1239-0.1038 ( 19700 PWs)   bands (ev):

   -22.4177 -22.4177 -22.4177 -22.4177 -22.3990 -22.3990 -22.3989 -22.3989
   -22.3719 -22.3719 -22.3719 -22.3719 -22.3435 -22.3435 -22.3434 -22.3434
   -22.3347 -22.3347 -22.3347 -22.3347 -13.6133 -13.6133 -13.6132 -13.6132
    -8.3676  -8.3676  -8.3676  -8.3676  -4.2809  -4.2809  -4.2808  -4.2808
    -3.5702  -3.5702  -3.5702  -3.5702  -2.0792  -2.0792  -2.0792  -2.0792
     0.4655   0.4655   0.4655   0.4655   1.9456   1.9456   1.9456   1.9456

     occupation numbers 
     1.0000   1.0000   1.0000   1.0000   1.0000   1.0000   1.0000   1.0000
     1.0000   1.0000   1.0000   1.0000   1.0000   1.0000   1.0000   1.0000
     1.0000   1.0000   1.0000   1.0000   1.0000   1.0000   1.0000   1.0000
     1.0000   1.0000   1.0000   1.0000   1.0000   1.0000   1.0000   1.0000
     1.0000   1.0000   1.0000   1.0000   1.0000   1.0000   1.0000   1.0000
     0.0000   0.0000   0.0000   0.0000   0.0000   0.0000   0.0000   0.0000

          k =-0.5000 0.2477 0.0000 ( 19738 PWs)   bands (ev):

   -22.4222 -22.4222 -22.4221 -22.4221 -22.3954 -22.3954 -22.3954 -22.3954
   -22.3717 -22.3717 -22.3717 -22.3717 -22.3444 -22.3444 -22.3444 -22.3444
   -22.3331 -22.3331 -22.3331 -22.3331 -13.5260 -13.5260 -13.5260 -13.5260
    -8.1463  -8.1463  -8.1463  -8.1463  -4.9799  -4.9799  -4.9799  -4.9799
    -3.8604  -3.8604  -3.8604  -3.8604  -2.6171  -2.6171  -2.6171  -2.6171
     1.2472   1.2472   1.2472   1.2472   2.4651   2.4651   2.4651   2.4651

     occupation numbers 
     1.0000   1.0000   1.0000   1.0000   1.0000   1.0000   1.0000   1.0000
     1.0000   1.0000   1.0000   1.0000   1.0000   1.0000   1.0000   1.0000
     1.0000   1.0000   1.0000   1.0000   1.0000   1.0000   1.0000   1.0000
     1.0000   1.0000   1.0000   1.0000   1.0000   1.0000   1.0000   1.0000
     1.0000   1.0000   1.0000   1.0000   1.0000   1.0000   1.0000   1.0000
     0.0000   0.0000   0.0000   0.0000   0.0000   0.0000   0.0000   0.0000

          k =-0.5000 0.2477-0.1038 ( 19716 PWs)   bands (ev):

   -22.4222 -22.4222 -22.4221 -22.4221 -22.3954 -22.3954 -22.3954 -22.3954
   -22.3717 -22.3717 -22.3717 -22.3717 -22.3444 -22.3444 -22.3444 -22.3444
   -22.3331 -22.3331 -22.3331 -22.3331 -13.5260 -13.5260 -13.5260 -13.5260
    -8.1463  -8.1463  -8.1463  -8.1463  -4.9799  -4.9799  -4.9799  -4.9799
    -3.8604  -3.8604  -3.8604  -3.8604  -2.6171  -2.6171  -2.6171  -2.6171
     1.2472   1.2472   1.2472   1.2472   2.4651   2.4651   2.4651   2.4651

     occupation numbers 
     1.0000   1.0000   1.0000   1.0000   1.0000   1.0000   1.0000   1.0000
     1.0000   1.0000   1.0000   1.0000   1.0000   1.0000   1.0000   1.0000
     1.0000   1.0000   1.0000   1.0000   1.0000   1.0000   1.0000   1.0000
     1.0000   1.0000   1.0000   1.0000   1.0000   1.0000   1.0000   1.0000
     1.0000   1.0000   1.0000   1.0000   1.0000   1.0000   1.0000   1.0000
     0.0000   0.0000   0.0000   0.0000   0.0000   0.0000   0.0000   0.0000

          k =-0.5000 0.3716 0.0000 ( 19724 PWs)   bands (ev):

   -22.4264 -22.4264 -22.4264 -22.4264 -22.3923 -22.3923 -22.3923 -22.3923
   -22.3715 -22.3715 -22.3714 -22.3714 -22.3448 -22.3448 -22.3448 -22.3448
   -22.3319 -22.3319 -22.3319 -22.3319 -13.4341 -13.4341 -13.4341 -13.4341
    -7.8730  -7.8730  -7.8729  -7.8729  -5.5410  -5.5410  -5.5410  -5.5410
    -4.3412  -4.3412  -4.3412  -4.3412  -2.8710  -2.8710  -2.8710  -2.8710
     1.9648   1.9648   1.9648   1.9648   2.8395   2.8395   2.8395   2.8395

     occupation numbers 
     1.0000   1.0000   1.0000   1.0000   1.0000   1.0000   1.0000   1.0000
     1.0000   1.0000   1.0000   1.0000   1.0000   1.0000   1.0000   1.0000
     1.0000   1.0000   1.0000   1.0000   1.0000   1.0000   1.0000   1.0000
     1.0000   1.0000   1.0000   1.0000   1.0000   1.0000   1.0000   1.0000
     1.0000   1.0000   1.0000   1.0000   1.0000   1.0000   1.0000   1.0000
     0.0000   0.0000   0.0000   0.0000   0.0000   0.0000   0.0000   0.0000

          k =-0.5000 0.3716-0.1038 ( 19732 PWs)   bands (ev):

   -22.4264 -22.4264 -22.4264 -22.4264 -22.3923 -22.3923 -22.3923 -22.3923
   -22.3715 -22.3715 -22.3715 -22.3715 -22.3448 -22.3448 -22.3448 -22.3448
   -22.3319 -22.3319 -22.3319 -22.3319 -13.4341 -13.4341 -13.4341 -13.4341
    -7.8730  -7.8730  -7.8729  -7.8729  -5.5410  -5.5410  -5.5410  -5.5410
    -4.3412  -4.3412  -4.3412  -4.3412  -2.8710  -2.8710  -2.8710  -2.8710
     1.9648   1.9648   1.9648   1.9648   2.8395   2.8395   2.8395   2.8395

     occupation numbers 
     1.0000   1.0000   1.0000   1.0000   1.0000   1.0000   1.0000   1.0000
     1.0000   1.0000   1.0000   1.0000   1.0000   1.0000   1.0000   1.0000
     1.0000   1.0000   1.0000   1.0000   1.0000   1.0000   1.0000   1.0000
     1.0000   1.0000   1.0000   1.0000   1.0000   1.0000   1.0000   1.0000
     1.0000   1.0000   1.0000   1.0000   1.0000   1.0000   1.0000   1.0000
     0.0000   0.0000   0.0000   0.0000   0.0000   0.0000   0.0000   0.0000

          k =-0.5000-0.4954 0.0000 ( 19708 PWs)   bands (ev):

   -22.4282 -22.4282 -22.4281 -22.4281 -22.3912 -22.3912 -22.3912 -22.3912
   -22.3713 -22.3713 -22.3713 -22.3713 -22.3448 -22.3448 -22.3448 -22.3448
   -22.3315 -22.3315 -22.3315 -22.3315 -13.3946 -13.3946 -13.3945 -13.3945
    -7.7360  -7.7360  -7.7360  -7.7360  -5.7396  -5.7396  -5.7396  -5.7396
    -4.6114  -4.6114  -4.6114  -4.6114  -2.9036  -2.9036  -2.9036  -2.9036
     2.2355   2.2355   2.2355   2.2355   2.9409   2.9409   2.9409   2.9409

     occupation numbers 
     1.0000   1.0000   1.0000   1.0000   1.0000   1.0000   1.0000   1.0000
     1.0000   1.0000   1.0000   1.0000   1.0000   1.0000   1.0000   1.0000
     1.0000   1.0000   1.0000   1.0000   1.0000   1.0000   1.0000   1.0000
     1.0000   1.0000   1.0000   1.0000   1.0000   1.0000   1.0000   1.0000
     1.0000   1.0000   1.0000   1.0000   1.0000   1.0000   1.0000   1.0000
     0.0000   0.0000   0.0000   0.0000   0.0000   0.0000   0.0000   0.0000

          k =-0.5000-0.4954-0.1038 ( 19744 PWs)   bands (ev):

   -22.4282 -22.4282 -22.4281 -22.4281 -22.3912 -22.3912 -22.3911 -22.3911
   -22.3713 -22.3713 -22.3713 -22.3713 -22.3448 -22.3448 -22.3448 -22.3448
   -22.3315 -22.3315 -22.3315 -22.3315 -13.3946 -13.3946 -13.3945 -13.3945
    -7.7360  -7.7360  -7.7360  -7.7360  -5.7396  -5.7396  -5.7396  -5.7396
    -4.6114  -4.6114  -4.6114  -4.6114  -2.9036  -2.9036  -2.9036  -2.9036
     2.2355   2.2355   2.2355   2.2355   2.9409   2.9409   2.9409   2.9409

     occupation numbers 
     1.0000   1.0000   1.0000   1.0000   1.0000   1.0000   1.0000   1.0000
     1.0000   1.0000   1.0000   1.0000   1.0000   1.0000   1.0000   1.0000
     1.0000   1.0000   1.0000   1.0000   1.0000   1.0000   1.0000   1.0000
     1.0000   1.0000   1.0000   1.0000   1.0000   1.0000   1.0000   1.0000
     1.0000   1.0000   1.0000   1.0000   1.0000   1.0000   1.0000   1.0000
     0.0000   0.0000   0.0000   0.0000   0.0000   0.0000   0.0000   0.0000

     the Fermi energy is    -0.8030 ev
     (compare with:    -0.8030 eV, computed in scf)

     Writing output data file ./SnS.save/
 
     init_run     :      1.18s CPU      1.30s WALL (       1 calls)
     electrons    :    350.72s CPU    363.06s WALL (       1 calls)

     Called by init_run:
     wfcinit      :      0.00s CPU      0.00s WALL (       1 calls)
     wfcinit:atom :      0.05s CPU      0.05s WALL (      50 calls)
     wfcinit:wfcr :      6.51s CPU      6.79s WALL (      50 calls)
     potinit      :      0.09s CPU      0.11s WALL (       1 calls)
     hinit0       :      0.64s CPU      0.67s WALL (       1 calls)

     Called by electrons:
     c_bands      :    350.72s CPU    363.06s WALL (       1 calls)
     v_of_rho     :      0.06s CPU      0.07s WALL (       1 calls)
     v_h          :      0.00s CPU      0.00s WALL (       1 calls)
     v_xc         :      0.05s CPU      0.07s WALL (       1 calls)
     newd         :      0.33s CPU      0.37s WALL (       1 calls)

     Called by c_bands:
     init_us_2    :      0.04s CPU      0.04s WALL (      50 calls)
     cegterg      :    342.64s CPU    354.60s WALL (     204 calls)

     Called by sum_band:

     Called by *egterg:
     cdiaghg      :      9.55s CPU      9.57s WALL (    3673 calls)
     cegterg:over :     40.34s CPU     42.50s WALL (    3623 calls)
     cegterg:upda :     12.98s CPU     12.99s WALL (    3623 calls)
     cegterg:last :     31.02s CPU     31.04s WALL (    2154 calls)
     h_psi        :    217.46s CPU    225.32s WALL (    3877 calls)
     s_psi        :      6.80s CPU      6.81s WALL (    3877 calls)
     g_psi        :      1.84s CPU      1.85s WALL (    3623 calls)

     Called by h_psi:
     h_psi:calbec :     12.71s CPU     13.46s WALL (    3877 calls)
     vloc_psi     :    196.55s CPU    203.63s WALL (    3877 calls)
     add_vuspsi   :      7.15s CPU      7.16s WALL (    3877 calls)

     General routines
     calbec       :     12.70s CPU     13.45s WALL (    3877 calls)
     fft          :      0.07s CPU      0.10s WALL (      19 calls)
     ffts         :      0.00s CPU      0.00s WALL (       4 calls)
     fftw         :    168.32s CPU    174.54s WALL (  435404 calls)
     interpolate  :      0.01s CPU      0.02s WALL (       4 calls)
     davcio       :      0.02s CPU      0.12s WALL (     100 calls)
 
     Parallel routines
 
     PWSCF        :   5m54.16s CPU   6m22.71s WALL

 
   This run was terminated on:  13:12:18  19Mar2023            

=------------------------------------------------------------------------------=
   JOB DONE.
=------------------------------------------------------------------------------=
