
     Program BANDS v.6.8 starts on 19Mar2023 at 13:27:10 

     This program is part of the open-source Quantum ESPRESSO suite
     for quantum simulation of materials; please cite
         "P. Giannozzi et al., J. Phys.:Condens. Matter 21 395502 (2009);
         "P. Giannozzi et al., J. Phys.:Condens. Matter 29 465901 (2017);
         "P. Giannozzi et al., J. Chem. Phys. 152 154105 (2020);
          URL http://www.quantum-espresso.org", 
     in publications or presentations arising from this work. More details at
     http://www.quantum-espresso.org/quote

     Parallel version (MPI), running on    12 processors

     MPI processes distributed on     1 nodes
     R & G space division:  proc/nbgrp/npool/nimage =      12
     228560 MiB available memory on the printing compute node when the environment starts
 

     Reading xml data from directory:

     ./SnS.save/

     IMPORTANT: XC functional enforced from input :
     Exchange-correlation= PBESOL
                           (   1   4  10   8   0   0   0)
     Any further DFT definition will be discarded
     Please, verify this is what you really want

 
     Parallelization info
     --------------------
     sticks:   dense  smooth     PW     G-vecs:    dense   smooth      PW
     Min         211     105     30                37844    13375    2044
     Max         212     106     31                37854    13384    2060
     Sum        2541    1263    361               454169   160529   24615
 
     Using Slab Decomposition
 

     negative rho (up, down):  4.959E-05 0.000E+00
     Reading collected, re-writing distributed wavefunctions
     high-symmetry point:  0.0000 0.0000 0.0000   x coordinate   0.0000
     high-symmetry point:  0.5000 0.0000 0.0000   x coordinate   0.5000
     high-symmetry point:  0.5000 0.5049 0.0000   x coordinate   1.0049
     high-symmetry point:  0.0000 0.5049 0.0000   x coordinate   1.5049
     high-symmetry point:  0.0000 0.0000 0.0000   x coordinate   2.0099

     Plottable bands (eV) written to file SnS_bands.dat.gnu
     Bands written to file SnS_bands.dat

 **************************************************************************

                    xk=(   0.00000,   0.00000,   0.00000  )

     double point group C_s (m)    
     there are  4 classes and  2 irreducible representations
     the character table:

       E     -E    s     -s   
                              
G_3    1.00 -1.00  0.00  0.00
G_4    1.00 -1.00  0.00  0.00

     imaginary part

       E     -E    s     -s   
                              
G_3    0.00  0.00  1.00 -1.00
G_4    0.00  0.00 -1.00  1.00

     the symmetry operations in each class and the name of the first element:

     E             1
                                                                 
     -E           -1
                                                                 
     s             2
                                                                 
     -s           -2
                                                                 

     Band symmetry, C_s (m)     double point group:

     e(  1 -  2) =    -22.51780  eV     2   --> G_3            
     e(  1 -  2) =    -22.51780  eV     2   --> G_4            
     e(  3 -  4) =    -22.51130  eV     2   --> G_3            
     e(  3 -  4) =    -22.51130  eV     2   --> G_4            
     e(  5 -  6) =    -22.50960  eV     2   --> G_3            
     e(  5 -  6) =    -22.50960  eV     2   --> G_4            
     e(  7 -  8) =    -22.50130  eV     2   --> G_3            
     e(  7 -  8) =    -22.50130  eV     2   --> G_4            
     e(  9 - 10) =    -22.49496  eV     2   --> G_3            
     e(  9 - 10) =    -22.49496  eV     2   --> G_4            
     e( 11 - 12) =    -22.46138  eV     2   --> G_3            
     e( 11 - 12) =    -22.46138  eV     2   --> G_4            
     e( 13 - 14) =    -22.44904  eV     2   --> G_3            
     e( 13 - 14) =    -22.44904  eV     2   --> G_4            
     e( 15 - 16) =    -22.44687  eV     2   --> G_3            
     e( 15 - 16) =    -22.44687  eV     2   --> G_4            
     e( 17 - 18) =    -22.43381  eV     2   --> G_3            
     e( 17 - 18) =    -22.43381  eV     2   --> G_4            
     e( 19 - 20) =    -22.42911  eV     2   --> G_3            
     e( 19 - 20) =    -22.42911  eV     2   --> G_4            
     e( 21 - 22) =    -14.62504  eV     2   --> G_3            
     e( 21 - 22) =    -14.62504  eV     2   --> G_4            
     e( 23 - 24) =    -13.26506  eV     2   --> G_3            
     e( 23 - 24) =    -13.26506  eV     2   --> G_4            
     e( 25 - 26) =     -7.94677  eV     2   --> G_3            
     e( 25 - 26) =     -7.94677  eV     2   --> G_4            
     e( 27 - 28) =     -6.27020  eV     2   --> G_3            
     e( 27 - 28) =     -6.27020  eV     2   --> G_4            
     e( 29 - 30) =     -4.91533  eV     2   --> G_3            
     e( 29 - 30) =     -4.91533  eV     2   --> G_4            
     e( 31 - 32) =     -4.88953  eV     2   --> G_3            
     e( 31 - 32) =     -4.88953  eV     2   --> G_4            
     e( 33 - 34) =     -4.33132  eV     2   --> G_3            
     e( 33 - 34) =     -4.33132  eV     2   --> G_4            
     e( 35 - 36) =     -3.50600  eV     2   --> G_3            
     e( 35 - 36) =     -3.50600  eV     2   --> G_4            
     e( 37 - 38) =     -2.94072  eV     2   --> G_3            
     e( 37 - 38) =     -2.94072  eV     2   --> G_4            
     e( 39 - 40) =     -1.88963  eV     2   --> G_3            
     e( 39 - 40) =     -1.88963  eV     2   --> G_4            
     e( 41 - 42) =      0.51475  eV     2   --> G_3            
     e( 41 - 42) =      0.51475  eV     2   --> G_4            
     e( 43 - 44) =      1.37483  eV     2   --> G_3            
     e( 43 - 44) =      1.37483  eV     2   --> G_4            
     e( 45 - 46) =      1.99622  eV     2   --> G_3            
     e( 45 - 46) =      1.99622  eV     2   --> G_4            
     e( 47 - 48) =      2.61847  eV     2   --> G_3            
     e( 47 - 48) =      2.61847  eV     2   --> G_4            

 **************************************************************************

 **************************************************************************

                    xk=(   0.02500,   0.00000,   0.00000  )

     double point group C_1 (1)    
     there are  2 classes and  1 irreducible representations
     the character table:

       E     -E   
                  
G_2    1.00 -1.00

     the symmetry operations in each class and the name of the first element:

     E             1
                                                                 
     -E           -1
                                                                 

     Band symmetry, C_1 (1)     double point group:

     e(  1 -  2) =    -22.51773  eV     2   -->   2 G_2            
     e(  3 -  4) =    -22.51136  eV     2   -->   2 G_2            
     e(  5 -  6) =    -22.50955  eV     2   -->   2 G_2            
     e(  7 -  8) =    -22.50151  eV     2   -->   2 G_2            
     e(  9 - 10) =    -22.49474  eV     2   -->   2 G_2            
     e( 11 - 12) =    -22.46140  eV     2   -->   2 G_2            
     e( 13 - 14) =    -22.44900  eV     2   -->   2 G_2            
     e( 15 - 16) =    -22.44686  eV     2   -->   2 G_2            
     e( 17 - 18) =    -22.43381  eV     2   -->   2 G_2            
     e( 19 - 20) =    -22.42917  eV     2   -->   2 G_2            
     e( 21 - 22) =    -14.62206  eV     2   -->   2 G_2            
     e( 23 - 24) =    -13.26504  eV     2   -->   2 G_2            
     e( 25 - 26) =     -7.95520  eV     2   -->   2 G_2            
     e( 27 - 28) =     -6.28449  eV     2   -->   2 G_2            
     e( 29 - 30) =     -4.91601  eV     2   -->   2 G_2            
     e( 31 - 32) =     -4.88275  eV     2   -->   2 G_2            
     e( 33 - 34) =     -4.32702  eV     2   -->   2 G_2            
     e( 35 - 36) =     -3.49195  eV     2   -->   2 G_2            
     e( 37 - 38) =     -2.93707  eV     2   -->   2 G_2            
     e( 39 - 40) =     -1.89253  eV     2   -->   2 G_2            
     e( 41 - 42) =      0.51859  eV     2   -->   2 G_2            
     e( 43 - 44) =      1.38502  eV     2   -->   2 G_2            
     e( 45 - 46) =      1.99281  eV     2   -->   2 G_2            
     e( 47 - 48) =      2.55224  eV     2   -->   2 G_2            

 **************************************************************************

 **************************************************************************

                    xk=(   0.05000,   0.00000,   0.00000  )

     Band symmetry, C_1 (1)     double point group:

     e(  1 -  2) =    -22.51753  eV     2   -->   2 G_2            
     e(  3 -  4) =    -22.51152  eV     2   -->   2 G_2            
     e(  5 -  6) =    -22.50940  eV     2   -->   2 G_2            
     e(  7 -  8) =    -22.50207  eV     2   -->   2 G_2            
     e(  9 - 10) =    -22.49413  eV     2   -->   2 G_2            
     e( 11 - 12) =    -22.46145  eV     2   -->   2 G_2            
     e( 13 - 14) =    -22.44888  eV     2   -->   2 G_2            
     e( 15 - 16) =    -22.44682  eV     2   -->   2 G_2            
     e( 17 - 18) =    -22.43382  eV     2   -->   2 G_2            
     e( 19 - 20) =    -22.42930  eV     2   -->   2 G_2            
     e( 21 - 22) =    -14.61315  eV     2   -->   2 G_2            
     e( 23 - 24) =    -13.26504  eV     2   -->   2 G_2            
     e( 25 - 26) =     -7.97997  eV     2   -->   2 G_2            
     e( 27 - 28) =     -6.32674  eV     2   -->   2 G_2            
     e( 29 - 30) =     -4.91699  eV     2   -->   2 G_2            
     e( 31 - 32) =     -4.86279  eV     2   -->   2 G_2            
     e( 33 - 34) =     -4.31413  eV     2   -->   2 G_2            
     e( 35 - 36) =     -3.45200  eV     2   -->   2 G_2            
     e( 37 - 38) =     -2.92565  eV     2   -->   2 G_2            
     e( 39 - 40) =     -1.90123  eV     2   -->   2 G_2            
     e( 41 - 42) =      0.53015  eV     2   -->   2 G_2            
     e( 43 - 44) =      1.41510  eV     2   -->   2 G_2            
     e( 45 - 46) =      1.98159  eV     2   -->   2 G_2            
     e( 47 - 48) =      2.42684  eV     2   -->   2 G_2            

 **************************************************************************

 **************************************************************************

                    xk=(   0.07500,   0.00000,   0.00000  )

     Band symmetry, C_1 (1)     double point group:

     e(  1 -  2) =    -22.51723  eV     2   -->   2 G_2            
     e(  3 -  4) =    -22.51177  eV     2   -->   2 G_2            
     e(  5 -  6) =    -22.50916  eV     2   -->   2 G_2            
     e(  7 -  8) =    -22.50285  eV     2   -->   2 G_2            
     e(  9 - 10) =    -22.49327  eV     2   -->   2 G_2            
     e( 11 - 12) =    -22.46155  eV     2   -->   2 G_2            
     e( 13 - 14) =    -22.44870  eV     2   -->   2 G_2            
     e( 15 - 16) =    -22.44676  eV     2   -->   2 G_2            
     e( 17 - 18) =    -22.43383  eV     2   -->   2 G_2            
     e( 19 - 20) =    -22.42954  eV     2   -->   2 G_2            
     e( 21 - 22) =    -14.59835  eV     2   -->   2 G_2            
     e( 23 - 24) =    -13.26520  eV     2   -->   2 G_2            
     e( 25 - 26) =     -8.01959  eV     2   -->   2 G_2            
     e( 27 - 28) =     -6.39504  eV     2   -->   2 G_2            
     e( 29 - 30) =     -4.91577  eV     2   -->   2 G_2            
     e( 31 - 32) =     -4.83068  eV     2   -->   2 G_2            
     e( 33 - 34) =     -4.29270  eV     2   -->   2 G_2            
     e( 35 - 36) =     -3.39224  eV     2   -->   2 G_2            
     e( 37 - 38) =     -2.90490  eV     2   -->   2 G_2            
     e( 39 - 40) =     -1.91582  eV     2   -->   2 G_2            
     e( 41 - 42) =      0.54943  eV     2   -->   2 G_2            
     e( 43 - 44) =      1.46344  eV     2   -->   2 G_2            
     e( 45 - 46) =      1.95917  eV     2   -->   2 G_2            
     e( 47 - 48) =      2.26720  eV     2   -->   2 G_2            

 **************************************************************************

 **************************************************************************

                    xk=(   0.10000,   0.00000,   0.00000  )

     Band symmetry, C_1 (1)     double point group:

     e(  1 -  2) =    -22.51681  eV     2   -->   2 G_2            
     e(  3 -  4) =    -22.51208  eV     2   -->   2 G_2            
     e(  5 -  6) =    -22.50885  eV     2   -->   2 G_2            
     e(  7 -  8) =    -22.50375  eV     2   -->   2 G_2            
     e(  9 - 10) =    -22.49224  eV     2   -->   2 G_2            
     e( 11 - 12) =    -22.46169  eV     2   -->   2 G_2            
     e( 13 - 14) =    -22.44844  eV     2   -->   2 G_2            
     e( 15 - 16) =    -22.44665  eV     2   -->   2 G_2            
     e( 17 - 18) =    -22.43386  eV     2   -->   2 G_2            
     e( 19 - 20) =    -22.42986  eV     2   -->   2 G_2            
     e( 21 - 22) =    -14.57775  eV     2   -->   2 G_2            
     e( 23 - 24) =    -13.26579  eV     2   -->   2 G_2            
     e( 25 - 26) =     -8.07181  eV     2   -->   2 G_2            
     e( 27 - 28) =     -6.48641  eV     2   -->   2 G_2            
     e( 29 - 30) =     -4.90961  eV     2   -->   2 G_2            
     e( 31 - 32) =     -4.78798  eV     2   -->   2 G_2            
     e( 33 - 34) =     -4.26282  eV     2   -->   2 G_2            
     e( 35 - 36) =     -3.32156  eV     2   -->   2 G_2            
     e( 37 - 38) =     -2.87187  eV     2   -->   2 G_2            
     e( 39 - 40) =     -1.93634  eV     2   -->   2 G_2            
     e( 41 - 42) =      0.57650  eV     2   -->   2 G_2            
     e( 43 - 44) =      1.52711  eV     2   -->   2 G_2            
     e( 45 - 46) =      1.91513  eV     2   -->   2 G_2            
     e( 47 - 48) =      2.09361  eV     2   -->   2 G_2            

 **************************************************************************

 **************************************************************************

                    xk=(   0.12500,   0.00000,   0.00000  )

     Band symmetry, C_1 (1)     double point group:

     e(  1 -  2) =    -22.51631  eV     2   -->   2 G_2            
     e(  3 -  4) =    -22.51246  eV     2   -->   2 G_2            
     e(  5 -  6) =    -22.50850  eV     2   -->   2 G_2            
     e(  7 -  8) =    -22.50470  eV     2   -->   2 G_2            
     e(  9 - 10) =    -22.49111  eV     2   -->   2 G_2            
     e( 11 - 12) =    -22.46187  eV     2   -->   2 G_2            
     e( 13 - 14) =    -22.44812  eV     2   -->   2 G_2            
     e( 15 - 16) =    -22.44652  eV     2   -->   2 G_2            
     e( 17 - 18) =    -22.43390  eV     2   -->   2 G_2            
     e( 19 - 20) =    -22.43027  eV     2   -->   2 G_2            
     e( 21 - 22) =    -14.55149  eV     2   -->   2 G_2            
     e( 23 - 24) =    -13.26714  eV     2   -->   2 G_2            
     e( 25 - 26) =     -8.13384  eV     2   -->   2 G_2            
     e( 27 - 28) =     -6.59707  eV     2   -->   2 G_2            
     e( 29 - 30) =     -4.89651  eV     2   -->   2 G_2            
     e( 31 - 32) =     -4.73652  eV     2   -->   2 G_2            
     e( 33 - 34) =     -4.22467  eV     2   -->   2 G_2            
     e( 35 - 36) =     -3.25039  eV     2   -->   2 G_2            
     e( 37 - 38) =     -2.82224  eV     2   -->   2 G_2            
     e( 39 - 40) =     -1.96274  eV     2   -->   2 G_2            
     e( 41 - 42) =      0.61139  eV     2   -->   2 G_2            
     e( 43 - 44) =      1.60151  eV     2   -->   2 G_2            
     e( 45 - 46) =      1.80695  eV     2   -->   2 G_2            
     e( 47 - 48) =      1.95607  eV     2   -->   2 G_2            

 **************************************************************************

 **************************************************************************

                    xk=(   0.15000,   0.00000,   0.00000  )

     Band symmetry, C_1 (1)     double point group:

     e(  1 -  2) =    -22.51573  eV     2   -->   2 G_2            
     e(  3 -  4) =    -22.51289  eV     2   -->   2 G_2            
     e(  5 -  6) =    -22.50810  eV     2   -->   2 G_2            
     e(  7 -  8) =    -22.50569  eV     2   -->   2 G_2            
     e(  9 - 10) =    -22.48991  eV     2   -->   2 G_2            
     e( 11 - 12) =    -22.46209  eV     2   -->   2 G_2            
     e( 13 - 14) =    -22.44776  eV     2   -->   2 G_2            
     e( 15 - 16) =    -22.44633  eV     2   -->   2 G_2            
     e( 17 - 18) =    -22.43396  eV     2   -->   2 G_2            
     e( 19 - 20) =    -22.43074  eV     2   -->   2 G_2            
     e( 21 - 22) =    -14.51972  eV     2   -->   2 G_2            
     e( 23 - 24) =    -13.26970  eV     2   -->   2 G_2            
     e( 25 - 26) =     -8.20264  eV     2   -->   2 G_2            
     e( 27 - 28) =     -6.72296  eV     2   -->   2 G_2            
     e( 29 - 30) =     -4.87545  eV     2   -->   2 G_2            
     e( 31 - 32) =     -4.67815  eV     2   -->   2 G_2            
     e( 33 - 34) =     -4.17855  eV     2   -->   2 G_2            
     e( 35 - 36) =     -3.18823  eV     2   -->   2 G_2            
     e( 37 - 38) =     -2.75209  eV     2   -->   2 G_2            
     e( 39 - 40) =     -1.99478  eV     2   -->   2 G_2            
     e( 41 - 42) =      0.65419  eV     2   -->   2 G_2            
     e( 43 - 44) =      1.61951  eV     2   -->   2 G_2            
     e( 45 - 46) =      1.67993  eV     2   -->   2 G_2            
     e( 47 - 48) =      1.87586  eV     2   -->   2 G_2            

 **************************************************************************

 **************************************************************************

                    xk=(   0.17500,   0.00000,   0.00000  )

     Band symmetry, C_1 (1)     double point group:

     e(  1 -  2) =    -22.51511  eV     2   -->   2 G_2            
     e(  3 -  4) =    -22.51336  eV     2   -->   2 G_2            
     e(  5 -  6) =    -22.50768  eV     2   -->   2 G_2            
     e(  7 -  8) =    -22.50666  eV     2   -->   2 G_2            
     e(  9 - 10) =    -22.48865  eV     2   -->   2 G_2            
     e( 11 - 12) =    -22.46236  eV     2   -->   2 G_2            
     e( 13 - 14) =    -22.44738  eV     2   -->   2 G_2            
     e( 15 - 16) =    -22.44608  eV     2   -->   2 G_2            
     e( 17 - 18) =    -22.43404  eV     2   -->   2 G_2            
     e( 19 - 20) =    -22.43128  eV     2   -->   2 G_2            
     e( 21 - 22) =    -14.48264  eV     2   -->   2 G_2            
     e( 23 - 24) =    -13.27398  eV     2   -->   2 G_2            
     e( 25 - 26) =     -8.27507  eV     2   -->   2 G_2            
     e( 27 - 28) =     -6.86010  eV     2   -->   2 G_2            
     e( 29 - 30) =     -4.84622  eV     2   -->   2 G_2            
     e( 31 - 32) =     -4.61464  eV     2   -->   2 G_2            
     e( 33 - 34) =     -4.12499  eV     2   -->   2 G_2            
     e( 35 - 36) =     -3.14025  eV     2   -->   2 G_2            
     e( 37 - 38) =     -2.66117  eV     2   -->   2 G_2            
     e( 39 - 40) =     -2.03195  eV     2   -->   2 G_2            
     e( 41 - 42) =      0.70491  eV     2   -->   2 G_2            
     e( 43 - 44) =      1.40966  eV     2   -->   2 G_2            
     e( 45 - 46) =      1.75322  eV     2   -->   2 G_2            
     e( 47 - 48) =      1.80234  eV     2   -->   2 G_2            

 **************************************************************************

 **************************************************************************

                    xk=(   0.20000,   0.00000,   0.00000  )

     Band symmetry, C_1 (1)     double point group:

     e(  1 -  2) =    -22.51447  eV     2   -->   2 G_2            
     e(  3 -  4) =    -22.51384  eV     2   -->   2 G_2            
     e(  5 -  6) =    -22.50759  eV     2   -->   2 G_2            
     e(  7 -  8) =    -22.50724  eV     2   -->   2 G_2            
     e(  9 - 10) =    -22.48733  eV     2   -->   2 G_2            
     e( 11 - 12) =    -22.46268  eV     2   -->   2 G_2            
     e( 13 - 14) =    -22.44700  eV     2   -->   2 G_2            
     e( 15 - 16) =    -22.44574  eV     2   -->   2 G_2            
     e( 17 - 18) =    -22.43415  eV     2   -->   2 G_2            
     e( 19 - 20) =    -22.43185  eV     2   -->   2 G_2            
     e( 21 - 22) =    -14.44052  eV     2   -->   2 G_2            
     e( 23 - 24) =    -13.28056  eV     2   -->   2 G_2            
     e( 25 - 26) =     -8.34810  eV     2   -->   2 G_2            
     e( 27 - 28) =     -7.00486  eV     2   -->   2 G_2            
     e( 29 - 30) =     -4.80909  eV     2   -->   2 G_2            
     e( 31 - 32) =     -4.54754  eV     2   -->   2 G_2            
     e( 33 - 34) =     -4.06475  eV     2   -->   2 G_2            
     e( 35 - 36) =     -3.10638  eV     2   -->   2 G_2            
     e( 37 - 38) =     -2.55392  eV     2   -->   2 G_2            
     e( 39 - 40) =     -2.07336  eV     2   -->   2 G_2            
     e( 41 - 42) =      0.76357  eV     2   -->   2 G_2            
     e( 43 - 44) =      1.19667  eV     2   -->   2 G_2            
     e( 45 - 46) =      1.72320  eV     2   -->   2 G_2            
     e( 47 - 48) =      1.81000  eV     2   -->   2 G_2            

 **************************************************************************

 **************************************************************************

                    xk=(   0.22500,   0.00000,   0.00000  )

     Band symmetry, C_1 (1)     double point group:

     e(  1 -  2) =    -22.51434  eV     2   -->   2 G_2            
     e(  3 -  4) =    -22.51387  eV     2   -->   2 G_2            
     e(  5 -  6) =    -22.50842  eV     2   -->   2 G_2            
     e(  7 -  8) =    -22.50680  eV     2   -->   2 G_2            
     e(  9 - 10) =    -22.48598  eV     2   -->   2 G_2            
     e( 11 - 12) =    -22.46305  eV     2   -->   2 G_2            
     e( 13 - 14) =    -22.44662  eV     2   -->   2 G_2            
     e( 15 - 16) =    -22.44527  eV     2   -->   2 G_2            
     e( 17 - 18) =    -22.43431  eV     2   -->   2 G_2            
     e( 19 - 20) =    -22.43244  eV     2   -->   2 G_2            
     e( 21 - 22) =    -14.39364  eV     2   -->   2 G_2            
     e( 23 - 24) =    -13.29003  eV     2   -->   2 G_2            
     e( 25 - 26) =     -8.41884  eV     2   -->   2 G_2            
     e( 27 - 28) =     -7.15405  eV     2   -->   2 G_2            
     e( 29 - 30) =     -4.76461  eV     2   -->   2 G_2            
     e( 31 - 32) =     -4.47818  eV     2   -->   2 G_2            
     e( 33 - 34) =     -3.99895  eV     2   -->   2 G_2            
     e( 35 - 36) =     -3.08419  eV     2   -->   2 G_2            
     e( 37 - 38) =     -2.43684  eV     2   -->   2 G_2            
     e( 39 - 40) =     -2.11765  eV     2   -->   2 G_2            
     e( 41 - 42) =      0.83008  eV     2   -->   2 G_2            
     e( 43 - 44) =      0.98734  eV     2   -->   2 G_2            
     e( 45 - 46) =      1.63947  eV     2   -->   2 G_2            
     e( 47 - 48) =      1.83822  eV     2   -->   2 G_2            

 **************************************************************************

 **************************************************************************

                    xk=(   0.25000,   0.00000,   0.00000  )

     Band symmetry, C_1 (1)     double point group:

     e(  1 -  2) =    -22.51484  eV     2   -->   2 G_2            
     e(  3 -  4) =    -22.51341  eV     2   -->   2 G_2            
     e(  5 -  6) =    -22.50906  eV     2   -->   2 G_2            
     e(  7 -  8) =    -22.50638  eV     2   -->   2 G_2            
     e(  9 - 10) =    -22.48459  eV     2   -->   2 G_2            
     e( 11 - 12) =    -22.46347  eV     2   -->   2 G_2            
     e( 13 - 14) =    -22.44627  eV     2   -->   2 G_2            
     e( 15 - 16) =    -22.44472  eV     2   -->   2 G_2            
     e( 17 - 18) =    -22.43457  eV     2   -->   2 G_2            
     e( 19 - 20) =    -22.43304  eV     2   -->   2 G_2            
     e( 21 - 22) =    -14.34234  eV     2   -->   2 G_2            
     e( 23 - 24) =    -13.30303  eV     2   -->   2 G_2            
     e( 25 - 26) =     -8.48466  eV     2   -->   2 G_2            
     e( 27 - 28) =     -7.30493  eV     2   -->   2 G_2            
     e( 29 - 30) =     -4.71347  eV     2   -->   2 G_2            
     e( 31 - 32) =     -4.40775  eV     2   -->   2 G_2            
     e( 33 - 34) =     -3.92906  eV     2   -->   2 G_2            
     e( 35 - 36) =     -3.07152  eV     2   -->   2 G_2            
     e( 37 - 38) =     -2.31614  eV     2   -->   2 G_2            
     e( 39 - 40) =     -2.16296  eV     2   -->   2 G_2            
     e( 41 - 42) =      0.78636  eV     2   -->   2 G_2            
     e( 43 - 44) =      0.90421  eV     2   -->   2 G_2            
     e( 45 - 46) =      1.55484  eV     2   -->   2 G_2            
     e( 47 - 48) =      1.82812  eV     2   -->   2 G_2            

 **************************************************************************

 **************************************************************************

                    xk=(   0.27500,   0.00000,   0.00000  )

     Band symmetry, C_1 (1)     double point group:

     e(  1 -  2) =    -22.51534  eV     2   -->   2 G_2            
     e(  3 -  4) =    -22.51325  eV     2   -->   2 G_2            
     e(  5 -  6) =    -22.50938  eV     2   -->   2 G_2            
     e(  7 -  8) =    -22.50599  eV     2   -->   2 G_2            
     e(  9 - 10) =    -22.48319  eV     2   -->   2 G_2            
     e( 11 - 12) =    -22.46396  eV     2   -->   2 G_2            
     e( 13 - 14) =    -22.44592  eV     2   -->   2 G_2            
     e( 15 - 16) =    -22.44408  eV     2   -->   2 G_2            
     e( 17 - 18) =    -22.43497  eV     2   -->   2 G_2            
     e( 19 - 20) =    -22.43355  eV     2   -->   2 G_2            
     e( 21 - 22) =    -14.28703  eV     2   -->   2 G_2            
     e( 23 - 24) =    -13.32015  eV     2   -->   2 G_2            
     e( 25 - 26) =     -8.54318  eV     2   -->   2 G_2            
     e( 27 - 28) =     -7.45517  eV     2   -->   2 G_2            
     e( 29 - 30) =     -4.65645  eV     2   -->   2 G_2            
     e( 31 - 32) =     -4.33742  eV     2   -->   2 G_2            
     e( 33 - 34) =     -3.85697  eV     2   -->   2 G_2            
     e( 35 - 36) =     -3.06718  eV     2   -->   2 G_2            
     e( 37 - 38) =     -2.20678  eV     2   -->   2 G_2            
     e( 39 - 40) =     -2.19740  eV     2   -->   2 G_2            
     e( 41 - 42) =      0.59829  eV     2   -->   2 G_2            
     e( 43 - 44) =      0.98548  eV     2   -->   2 G_2            
     e( 45 - 46) =      1.47354  eV     2   -->   2 G_2            
     e( 47 - 48) =      1.77543  eV     2   -->   2 G_2            

 **************************************************************************

 **************************************************************************

                    xk=(   0.30000,   0.00000,   0.00000  )

     Band symmetry, C_1 (1)     double point group:

     e(  1 -  2) =    -22.51581  eV     2   -->   2 G_2            
     e(  3 -  4) =    -22.51347  eV     2   -->   2 G_2            
     e(  5 -  6) =    -22.50928  eV     2   -->   2 G_2            
     e(  7 -  8) =    -22.50564  eV     2   -->   2 G_2            
     e(  9 - 10) =    -22.48178  eV     2   -->   2 G_2            
     e( 11 - 12) =    -22.46451  eV     2   -->   2 G_2            
     e( 13 - 14) =    -22.44556  eV     2   -->   2 G_2            
     e( 15 - 16) =    -22.44339  eV     2   -->   2 G_2            
     e( 17 - 18) =    -22.43551  eV     2   -->   2 G_2            
     e( 19 - 20) =    -22.43397  eV     2   -->   2 G_2            
     e( 21 - 22) =    -14.22817  eV     2   -->   2 G_2            
     e( 23 - 24) =    -13.34193  eV     2   -->   2 G_2            
     e( 25 - 26) =     -8.59232  eV     2   -->   2 G_2            
     e( 27 - 28) =     -7.60273  eV     2   -->   2 G_2            
     e( 29 - 30) =     -4.59438  eV     2   -->   2 G_2            
     e( 31 - 32) =     -4.26849  eV     2   -->   2 G_2            
     e( 33 - 34) =     -3.78495  eV     2   -->   2 G_2            
     e( 35 - 36) =     -3.07069  eV     2   -->   2 G_2            
     e( 37 - 38) =     -2.24595  eV     2   -->   2 G_2            
     e( 39 - 40) =     -2.08610  eV     2   -->   2 G_2            
     e( 41 - 42) =      0.42827  eV     2   -->   2 G_2            
     e( 43 - 44) =      1.07277  eV     2   -->   2 G_2            
     e( 45 - 46) =      1.39957  eV     2   -->   2 G_2            
     e( 47 - 48) =      1.68273  eV     2   -->   2 G_2            

 **************************************************************************

 **************************************************************************

                    xk=(   0.32500,   0.00000,   0.00000  )

     Band symmetry, C_1 (1)     double point group:

     e(  1 -  2) =    -22.51624  eV     2   -->   2 G_2            
     e(  3 -  4) =    -22.51395  eV     2   -->   2 G_2            
     e(  5 -  6) =    -22.50887  eV     2   -->   2 G_2            
     e(  7 -  8) =    -22.50535  eV     2   -->   2 G_2            
     e(  9 - 10) =    -22.48037  eV     2   -->   2 G_2            
     e( 11 - 12) =    -22.46512  eV     2   -->   2 G_2            
     e( 13 - 14) =    -22.44517  eV     2   -->   2 G_2            
     e( 15 - 16) =    -22.44266  eV     2   -->   2 G_2            
     e( 17 - 18) =    -22.43618  eV     2   -->   2 G_2            
     e( 19 - 20) =    -22.43433  eV     2   -->   2 G_2            
     e( 21 - 22) =    -14.16625  eV     2   -->   2 G_2            
     e( 23 - 24) =    -13.36879  eV     2   -->   2 G_2            
     e( 25 - 26) =     -8.63033  eV     2   -->   2 G_2            
     e( 27 - 28) =     -7.74584  eV     2   -->   2 G_2            
     e( 29 - 30) =     -4.52820  eV     2   -->   2 G_2            
     e( 31 - 32) =     -4.20263  eV     2   -->   2 G_2            
     e( 33 - 34) =     -3.71546  eV     2   -->   2 G_2            
     e( 35 - 36) =     -3.08196  eV     2   -->   2 G_2            
     e( 37 - 38) =     -2.27665  eV     2   -->   2 G_2            
     e( 39 - 40) =     -1.98828  eV     2   -->   2 G_2            
     e( 41 - 42) =      0.28247  eV     2   -->   2 G_2            
     e( 43 - 44) =      1.16253  eV     2   -->   2 G_2            
     e( 45 - 46) =      1.33643  eV     2   -->   2 G_2            
     e( 47 - 48) =      1.55981  eV     2   -->   2 G_2            

 **************************************************************************

 **************************************************************************

                    xk=(   0.35000,   0.00000,   0.00000  )

     Band symmetry, C_1 (1)     double point group:

     e(  1 -  2) =    -22.51661  eV     2   -->   2 G_2            
     e(  3 -  4) =    -22.51454  eV     2   -->   2 G_2            
     e(  5 -  6) =    -22.50832  eV     2   -->   2 G_2            
     e(  7 -  8) =    -22.50511  eV     2   -->   2 G_2            
     e(  9 - 10) =    -22.47897  eV     2   -->   2 G_2            
     e( 11 - 12) =    -22.46580  eV     2   -->   2 G_2            
     e( 13 - 14) =    -22.44474  eV     2   -->   2 G_2            
     e( 15 - 16) =    -22.44191  eV     2   -->   2 G_2            
     e( 17 - 18) =    -22.43691  eV     2   -->   2 G_2            
     e( 19 - 20) =    -22.43468  eV     2   -->   2 G_2            
     e( 21 - 22) =    -14.10187  eV     2   -->   2 G_2            
     e( 23 - 24) =    -13.40105  eV     2   -->   2 G_2            
     e( 25 - 26) =     -8.65578  eV     2   -->   2 G_2            
     e( 27 - 28) =     -7.88293  eV     2   -->   2 G_2            
     e( 29 - 30) =     -4.45897  eV     2   -->   2 G_2            
     e( 31 - 32) =     -4.14211  eV     2   -->   2 G_2            
     e( 33 - 34) =     -3.65085  eV     2   -->   2 G_2            
     e( 35 - 36) =     -3.10098  eV     2   -->   2 G_2            
     e( 37 - 38) =     -2.29471  eV     2   -->   2 G_2            
     e( 39 - 40) =     -1.91076  eV     2   -->   2 G_2            
     e( 41 - 42) =      0.16820  eV     2   -->   2 G_2            
     e( 43 - 44) =      1.23424  eV     2   -->   2 G_2            
     e( 45 - 46) =      1.28693  eV     2   -->   2 G_2            
     e( 47 - 48) =      1.43573  eV     2   -->   2 G_2            

 **************************************************************************

 **************************************************************************

                    xk=(   0.37500,   0.00000,   0.00000  )

     Band symmetry, C_1 (1)     double point group:

     e(  1 -  2) =    -22.51692  eV     2   -->   2 G_2            
     e(  3 -  4) =    -22.51515  eV     2   -->   2 G_2            
     e(  5 -  6) =    -22.50773  eV     2   -->   2 G_2            
     e(  7 -  8) =    -22.50495  eV     2   -->   2 G_2            
     e(  9 - 10) =    -22.47759  eV     2   -->   2 G_2            
     e( 11 - 12) =    -22.46655  eV     2   -->   2 G_2            
     e( 13 - 14) =    -22.44428  eV     2   -->   2 G_2            
     e( 15 - 16) =    -22.44114  eV     2   -->   2 G_2            
     e( 17 - 18) =    -22.43767  eV     2   -->   2 G_2            
     e( 19 - 20) =    -22.43505  eV     2   -->   2 G_2            
     e( 21 - 22) =    -14.03564  eV     2   -->   2 G_2            
     e( 23 - 24) =    -13.43883  eV     2   -->   2 G_2            
     e( 25 - 26) =     -8.66759  eV     2   -->   2 G_2            
     e( 27 - 28) =     -8.01257  eV     2   -->   2 G_2            
     e( 29 - 30) =     -4.38795  eV     2   -->   2 G_2            
     e( 31 - 32) =     -4.09004  eV     2   -->   2 G_2            
     e( 33 - 34) =     -3.59259  eV     2   -->   2 G_2            
     e( 35 - 36) =     -3.12759  eV     2   -->   2 G_2            
     e( 37 - 38) =     -2.29616  eV     2   -->   2 G_2            
     e( 39 - 40) =     -1.86049  eV     2   -->   2 G_2            
     e( 41 - 42) =      0.09311  eV     2   -->   2 G_2            
     e( 43 - 44) =      1.17580  eV     2   -->   2 G_2            
     e( 45 - 46) =      1.25320  eV     2   -->   2 G_2            
     e( 47 - 48) =      1.42997  eV     2   -->   2 G_2            

 **************************************************************************

 **************************************************************************

                    xk=(   0.40000,   0.00000,   0.00000  )

     Band symmetry, C_1 (1)     double point group:

     e(  1 -  2) =    -22.51715  eV     2   -->   2 G_2            
     e(  3 -  4) =    -22.51572  eV     2   -->   2 G_2            
     e(  5 -  6) =    -22.50715  eV     2   -->   2 G_2            
     e(  7 -  8) =    -22.50486  eV     2   -->   2 G_2            
     e(  9 - 10) =    -22.47625  eV     2   -->   2 G_2            
     e( 11 - 12) =    -22.46737  eV     2   -->   2 G_2            
     e( 13 - 14) =    -22.44376  eV     2   -->   2 G_2            
     e( 15 - 16) =    -22.44038  eV     2   -->   2 G_2            
     e( 17 - 18) =    -22.43843  eV     2   -->   2 G_2            
     e( 19 - 20) =    -22.43545  eV     2   -->   2 G_2            
     e( 21 - 22) =    -13.96827  eV     2   -->   2 G_2            
     e( 23 - 24) =    -13.48209  eV     2   -->   2 G_2            
     e( 25 - 26) =     -8.66503  eV     2   -->   2 G_2            
     e( 27 - 28) =     -8.13348  eV     2   -->   2 G_2            
     e( 29 - 30) =     -4.31666  eV     2   -->   2 G_2            
     e( 31 - 32) =     -4.05032  eV     2   -->   2 G_2            
     e( 33 - 34) =     -3.54045  eV     2   -->   2 G_2            
     e( 35 - 36) =     -3.16138  eV     2   -->   2 G_2            
     e( 37 - 38) =     -2.27825  eV     2   -->   2 G_2            
     e( 39 - 40) =     -1.84261  eV     2   -->   2 G_2            
     e( 41 - 42) =      0.06320  eV     2   -->   2 G_2            
     e( 43 - 44) =      1.01708  eV     2   -->   2 G_2            
     e( 45 - 46) =      1.23664  eV     2   -->   2 G_2            
     e( 47 - 48) =      1.51167  eV     2   -->   2 G_2            

 **************************************************************************

 **************************************************************************

                    xk=(   0.42500,   0.00000,   0.00000  )

     Band symmetry, C_1 (1)     double point group:

     e(  1 -  2) =    -22.51730  eV     2   -->   2 G_2            
     e(  3 -  4) =    -22.51622  eV     2   -->   2 G_2            
     e(  5 -  6) =    -22.50662  eV     2   -->   2 G_2            
     e(  7 -  8) =    -22.50485  eV     2   -->   2 G_2            
     e(  9 - 10) =    -22.47493  eV     2   -->   2 G_2            
     e( 11 - 12) =    -22.46825  eV     2   -->   2 G_2            
     e( 13 - 14) =    -22.44321  eV     2   -->   2 G_2            
     e( 15 - 16) =    -22.43963  eV     2   -->   2 G_2            
     e( 17 - 18) =    -22.43919  eV     2   -->   2 G_2            
     e( 19 - 20) =    -22.43590  eV     2   -->   2 G_2            
     e( 21 - 22) =    -13.90051  eV     2   -->   2 G_2            
     e( 23 - 24) =    -13.53060  eV     2   -->   2 G_2            
     e( 25 - 26) =     -8.64768  eV     2   -->   2 G_2            
     e( 27 - 28) =     -8.24445  eV     2   -->   2 G_2            
     e( 29 - 30) =     -4.24695  eV     2   -->   2 G_2            
     e( 31 - 32) =     -4.02705  eV     2   -->   2 G_2            
     e( 33 - 34) =     -3.49229  eV     2   -->   2 G_2            
     e( 35 - 36) =     -3.20154  eV     2   -->   2 G_2            
     e( 37 - 38) =     -2.24040  eV     2   -->   2 G_2            
     e( 39 - 40) =     -1.85790  eV     2   -->   2 G_2            
     e( 41 - 42) =      0.08029  eV     2   -->   2 G_2            
     e( 43 - 44) =      0.84422  eV     2   -->   2 G_2            
     e( 45 - 46) =      1.23798  eV     2   -->   2 G_2            
     e( 47 - 48) =      1.54939  eV     2   -->   2 G_2            

 **************************************************************************

 **************************************************************************

                    xk=(   0.45000,   0.00000,   0.00000  )

     Band symmetry, C_1 (1)     double point group:

     e(  1 -  2) =    -22.51738  eV     2   -->   2 G_2            
     e(  3 -  4) =    -22.51664  eV     2   -->   2 G_2            
     e(  5 -  6) =    -22.50613  eV     2   -->   2 G_2            
     e(  7 -  8) =    -22.50495  eV     2   -->   2 G_2            
     e(  9 - 10) =    -22.47368  eV     2   -->   2 G_2            
     e( 11 - 12) =    -22.46921  eV     2   -->   2 G_2            
     e( 13 - 14) =    -22.44264  eV     2   -->   2 G_2            
     e( 15 - 16) =    -22.43994  eV     2   -->   2 G_2            
     e( 17 - 18) =    -22.43890  eV     2   -->   2 G_2            
     e( 19 - 20) =    -22.43641  eV     2   -->   2 G_2            
     e( 21 - 22) =    -13.83314  eV     2   -->   2 G_2            
     e( 23 - 24) =    -13.58396  eV     2   -->   2 G_2            
     e( 25 - 26) =     -8.61545  eV     2   -->   2 G_2            
     e( 27 - 28) =     -8.34438  eV     2   -->   2 G_2            
     e( 29 - 30) =     -4.18117  eV     2   -->   2 G_2            
     e( 31 - 32) =     -4.02325  eV     2   -->   2 G_2            
     e( 33 - 34) =     -3.44502  eV     2   -->   2 G_2            
     e( 35 - 36) =     -3.24688  eV     2   -->   2 G_2            
     e( 37 - 38) =     -2.18473  eV     2   -->   2 G_2            
     e( 39 - 40) =     -1.90176  eV     2   -->   2 G_2            
     e( 41 - 42) =      0.14101  eV     2   -->   2 G_2            
     e( 43 - 44) =      0.67332  eV     2   -->   2 G_2            
     e( 45 - 46) =      1.25734  eV     2   -->   2 G_2            
     e( 47 - 48) =      1.49106  eV     2   -->   2 G_2            

 **************************************************************************

 **************************************************************************

                    xk=(   0.47500,   0.00000,   0.00000  )

     Band symmetry, C_1 (1)     double point group:

     e(  1 -  2) =    -22.51734  eV     2   -->   2 G_2            
     e(  3 -  4) =    -22.51696  eV     2   -->   2 G_2            
     e(  5 -  6) =    -22.50572  eV     2   -->   2 G_2            
     e(  7 -  8) =    -22.50511  eV     2   -->   2 G_2            
     e(  9 - 10) =    -22.47247  eV     2   -->   2 G_2            
     e( 11 - 12) =    -22.47023  eV     2   -->   2 G_2            
     e( 13 - 14) =    -22.44202  eV     2   -->   2 G_2            
     e( 15 - 16) =    -22.44066  eV     2   -->   2 G_2            
     e( 17 - 18) =    -22.43821  eV     2   -->   2 G_2            
     e( 19 - 20) =    -22.43696  eV     2   -->   2 G_2            
     e( 21 - 22) =    -13.76698  eV     2   -->   2 G_2            
     e( 23 - 24) =    -13.64160  eV     2   -->   2 G_2            
     e( 25 - 26) =     -8.56850  eV     2   -->   2 G_2            
     e( 27 - 28) =     -8.43228  eV     2   -->   2 G_2            
     e( 29 - 30) =     -4.12224  eV     2   -->   2 G_2            
     e( 31 - 32) =     -4.03949  eV     2   -->   2 G_2            
     e( 33 - 34) =     -3.39644  eV     2   -->   2 G_2            
     e( 35 - 36) =     -3.29576  eV     2   -->   2 G_2            
     e( 37 - 38) =     -2.11582  eV     2   -->   2 G_2            
     e( 39 - 40) =     -1.96575  eV     2   -->   2 G_2            
     e( 41 - 42) =      0.23836  eV     2   -->   2 G_2            
     e( 43 - 44) =      0.51139  eV     2   -->   2 G_2            
     e( 45 - 46) =      1.29422  eV     2   -->   2 G_2            
     e( 47 - 48) =      1.41495  eV     2   -->   2 G_2            

 **************************************************************************

 **************************************************************************

                    xk=(   0.50000,   0.00000,   0.00000  )

     zone border point and non-symmorphic group 
     symmetry decomposition not available

 **************************************************************************

 **************************************************************************

                    xk=(   0.50000,   0.02525,   0.00000  )

     zone border point and non-symmorphic group 
     symmetry decomposition not available

 **************************************************************************

 **************************************************************************

                    xk=(   0.50000,   0.05049,   0.00000  )

     zone border point and non-symmorphic group 
     symmetry decomposition not available

 **************************************************************************

 **************************************************************************

                    xk=(   0.50000,   0.07574,   0.00000  )

     zone border point and non-symmorphic group 
     symmetry decomposition not available

 **************************************************************************

 **************************************************************************

                    xk=(   0.50000,   0.10099,   0.00000  )

     zone border point and non-symmorphic group 
     symmetry decomposition not available

 **************************************************************************

 **************************************************************************

                    xk=(   0.50000,   0.12623,   0.00000  )

     zone border point and non-symmorphic group 
     symmetry decomposition not available

 **************************************************************************

 **************************************************************************

                    xk=(   0.50000,   0.15148,   0.00000  )

     zone border point and non-symmorphic group 
     symmetry decomposition not available

 **************************************************************************

 **************************************************************************

                    xk=(   0.50000,   0.17673,   0.00000  )

     zone border point and non-symmorphic group 
     symmetry decomposition not available

 **************************************************************************

 **************************************************************************

                    xk=(   0.50000,   0.20197,   0.00000  )

     zone border point and non-symmorphic group 
     symmetry decomposition not available

 **************************************************************************

 **************************************************************************

                    xk=(   0.50000,   0.22722,   0.00000  )

     zone border point and non-symmorphic group 
     symmetry decomposition not available

 **************************************************************************

 **************************************************************************

                    xk=(   0.50000,   0.25247,   0.00000  )

     zone border point and non-symmorphic group 
     symmetry decomposition not available

 **************************************************************************

 **************************************************************************

                    xk=(   0.50000,   0.27771,   0.00000  )

     zone border point and non-symmorphic group 
     symmetry decomposition not available

 **************************************************************************

 **************************************************************************

                    xk=(   0.50000,   0.30296,   0.00000  )

     zone border point and non-symmorphic group 
     symmetry decomposition not available

 **************************************************************************

 **************************************************************************

                    xk=(   0.50000,   0.32821,   0.00000  )

     zone border point and non-symmorphic group 
     symmetry decomposition not available

 **************************************************************************

 **************************************************************************

                    xk=(   0.50000,   0.35345,   0.00000  )

     zone border point and non-symmorphic group 
     symmetry decomposition not available

 **************************************************************************

 **************************************************************************

                    xk=(   0.50000,   0.37870,   0.00000  )

     zone border point and non-symmorphic group 
     symmetry decomposition not available

 **************************************************************************

 **************************************************************************

                    xk=(   0.50000,   0.40395,   0.00000  )

     zone border point and non-symmorphic group 
     symmetry decomposition not available

 **************************************************************************

 **************************************************************************

                    xk=(   0.50000,   0.42919,   0.00000  )

     zone border point and non-symmorphic group 
     symmetry decomposition not available

 **************************************************************************

 **************************************************************************

                    xk=(   0.50000,   0.45444,   0.00000  )

     zone border point and non-symmorphic group 
     symmetry decomposition not available

 **************************************************************************

 **************************************************************************

                    xk=(   0.50000,   0.47969,   0.00000  )

     zone border point and non-symmorphic group 
     symmetry decomposition not available

 **************************************************************************

 **************************************************************************

                    xk=(   0.50000,   0.50493,   0.00000  )

     zone border point and non-symmorphic group 
     symmetry decomposition not available

 **************************************************************************

 **************************************************************************

                    xk=(   0.47500,   0.50493,   0.00000  )

     double point group C_1 (1)    
     there are  2 classes and  1 irreducible representations
     the character table:

       E     -E   
                  
G_2    1.00 -1.00

     the symmetry operations in each class and the name of the first element:

     E             1
                                                                 
     -E           -1
                                                                 

     Band symmetry, C_1 (1)     double point group:

     e(  1 -  2) =    -22.52819  eV     2   -->   2 G_2            
     e(  3 -  4) =    -22.52808  eV     2   -->   2 G_2            
     e(  5 -  6) =    -22.49530  eV     2   -->   2 G_2            
     e(  7 -  8) =    -22.49518  eV     2   -->   2 G_2            
     e(  9 - 12) =    -22.47234  eV     4   -->   4 G_2            
     e( 13 - 16) =    -22.44440  eV     4   -->   4 G_2            
     e( 17 - 20) =    -22.43220  eV     4   -->   4 G_2            
     e( 21 - 22) =    -13.46331  eV     2   -->   2 G_2            
     e( 23 - 24) =    -13.46320  eV     2   -->   2 G_2            
     e( 25 - 28) =     -7.82792  eV     4   -->   4 G_2            
     e( 29 - 32) =     -5.72304  eV     4   -->   4 G_2            
     e( 33 - 36) =     -4.60247  eV     4   -->   4 G_2            
     e( 37 - 40) =     -2.93920  eV     4   -->   4 G_2            
     e( 41 - 44) =      2.14435  eV     4   -->   4 G_2            
     e( 45 - 48) =      2.72200  eV     4   -->   4 G_2            

 **************************************************************************

 **************************************************************************

                    xk=(   0.45000,   0.50493,   0.00000  )

     Band symmetry, C_1 (1)     double point group:

     e(  1 -  2) =    -22.52794  eV     2   -->   2 G_2            
     e(  3 -  4) =    -22.52783  eV     2   -->   2 G_2            
     e(  5 -  6) =    -22.49548  eV     2   -->   2 G_2            
     e(  7 -  8) =    -22.49535  eV     2   -->   2 G_2            
     e(  9 - 12) =    -22.47234  eV     4   -->   4 G_2            
     e( 13 - 16) =    -22.44441  eV     4   -->   4 G_2            
     e( 17 - 20) =    -22.43226  eV     4   -->   4 G_2            
     e( 21 - 22) =    -13.46941  eV     2   -->   2 G_2            
     e( 23 - 24) =    -13.46929  eV     2   -->   2 G_2            
     e( 25 - 28) =     -7.83126  eV     4   -->   4 G_2            
     e( 29 - 32) =     -5.71944  eV     4   -->   4 G_2            
     e( 33 - 36) =     -4.55980  eV     4   -->   4 G_2            
     e( 37 - 40) =     -2.93683  eV     4   -->   4 G_2            
     e( 41 - 44) =      2.12081  eV     4   -->   4 G_2            
     e( 45 - 48) =      2.68691  eV     4   -->   4 G_2            

 **************************************************************************

 **************************************************************************

                    xk=(   0.42500,   0.50493,   0.00000  )

     Band symmetry, C_1 (1)     double point group:

     e(  1 -  2) =    -22.52752  eV     2   -->   2 G_2            
     e(  3 -  4) =    -22.52742  eV     2   -->   2 G_2            
     e(  5 -  6) =    -22.49577  eV     2   -->   2 G_2            
     e(  7 -  8) =    -22.49564  eV     2   -->   2 G_2            
     e(  9 - 12) =    -22.47233  eV     4   -->   4 G_2            
     e( 13 - 16) =    -22.44442  eV     4   -->   4 G_2            
     e( 17 - 20) =    -22.43237  eV     4   -->   4 G_2            
     e( 21 - 22) =    -13.47934  eV     2   -->   2 G_2            
     e( 23 - 24) =    -13.47922  eV     2   -->   2 G_2            
     e( 25 - 28) =     -7.83734  eV     4   -->   4 G_2            
     e( 29 - 32) =     -5.70980  eV     4   -->   4 G_2            
     e( 33 - 36) =     -4.49301  eV     4   -->   4 G_2            
     e( 37 - 40) =     -2.93197  eV     4   -->   4 G_2            
     e( 41 - 44) =      2.07617  eV     4   -->   4 G_2            
     e( 45 - 48) =      2.63623  eV     4   -->   4 G_2            

 **************************************************************************

 **************************************************************************

                    xk=(   0.40000,   0.50493,   0.00000  )

     Band symmetry, C_1 (1)     double point group:

     e(  1 -  2) =    -22.52696  eV     2   -->   2 G_2            
     e(  3 -  4) =    -22.52685  eV     2   -->   2 G_2            
     e(  5 -  6) =    -22.49616  eV     2   -->   2 G_2            
     e(  7 -  8) =    -22.49604  eV     2   -->   2 G_2            
     e(  9 - 12) =    -22.47233  eV     4   -->   4 G_2            
     e( 13 - 16) =    -22.44444  eV     4   -->   4 G_2            
     e( 17 - 20) =    -22.43252  eV     4   -->   4 G_2            
     e( 21 - 22) =    -13.49279  eV     2   -->   2 G_2            
     e( 23 - 24) =    -13.49268  eV     2   -->   2 G_2            
     e( 25 - 28) =     -7.84678  eV     4   -->   4 G_2            
     e( 29 - 32) =     -5.69009  eV     4   -->   4 G_2            
     e( 33 - 36) =     -4.40744  eV     4   -->   4 G_2            
     e( 37 - 40) =     -2.92318  eV     4   -->   4 G_2            
     e( 41 - 44) =      2.00375  eV     4   -->   4 G_2            
     e( 45 - 48) =      2.57857  eV     4   -->   4 G_2            

 **************************************************************************

 **************************************************************************

                    xk=(   0.37500,   0.50493,   0.00000  )

     Band symmetry, C_1 (1)     double point group:

     e(  1 -  2) =    -22.52625  eV     2   -->   2 G_2            
     e(  3 -  4) =    -22.52614  eV     2   -->   2 G_2            
     e(  5 -  6) =    -22.49666  eV     2   -->   2 G_2            
     e(  7 -  8) =    -22.49653  eV     2   -->   2 G_2            
     e(  9 - 12) =    -22.47235  eV     4   -->   4 G_2            
     e( 13 - 16) =    -22.44446  eV     4   -->   4 G_2            
     e( 17 - 20) =    -22.43270  eV     4   -->   4 G_2            
     e( 21 - 22) =    -13.50936  eV     2   -->   2 G_2            
     e( 23 - 24) =    -13.50924  eV     2   -->   2 G_2            
     e( 25 - 28) =     -7.86012  eV     4   -->   4 G_2            
     e( 29 - 32) =     -5.65651  eV     4   -->   4 G_2            
     e( 33 - 36) =     -4.30914  eV     4   -->   4 G_2            
     e( 37 - 40) =     -2.90834  eV     4   -->   4 G_2            
     e( 41 - 44) =      1.89801  eV     4   -->   4 G_2            
     e( 45 - 48) =      2.52061  eV     4   -->   4 G_2            

 **************************************************************************

 **************************************************************************

                    xk=(   0.35000,   0.50493,   0.00000  )

     Band symmetry, C_1 (1)     double point group:

     e(  1 -  2) =    -22.52542  eV     2   -->   2 G_2            
     e(  3 -  4) =    -22.52531  eV     2   -->   2 G_2            
     e(  5 -  6) =    -22.49724  eV     2   -->   2 G_2            
     e(  7 -  8) =    -22.49712  eV     2   -->   2 G_2            
     e(  9 - 12) =    -22.47237  eV     4   -->   4 G_2            
     e( 13 - 16) =    -22.44446  eV     4   -->   4 G_2            
     e( 17 - 20) =    -22.43293  eV     4   -->   4 G_2            
     e( 21 - 22) =    -13.52853  eV     2   -->   2 G_2            
     e( 23 - 24) =    -13.52841  eV     2   -->   2 G_2            
     e( 25 - 28) =     -7.87768  eV     4   -->   4 G_2            
     e( 29 - 32) =     -5.60619  eV     4   -->   4 G_2            
     e( 33 - 36) =     -4.20449  eV     4   -->   4 G_2            
     e( 37 - 40) =     -2.88463  eV     4   -->   4 G_2            
     e( 41 - 44) =      1.75760  eV     4   -->   4 G_2            
     e( 45 - 48) =      2.46456  eV     4   -->   4 G_2            

 **************************************************************************

 **************************************************************************

                    xk=(   0.32500,   0.50493,   0.00000  )

     Band symmetry, C_1 (1)     double point group:

     e(  1 -  2) =    -22.52448  eV     2   -->   2 G_2            
     e(  3 -  4) =    -22.52438  eV     2   -->   2 G_2            
     e(  5 -  6) =    -22.49790  eV     2   -->   2 G_2            
     e(  7 -  8) =    -22.49778  eV     2   -->   2 G_2            
     e(  9 - 12) =    -22.47242  eV     4   -->   4 G_2            
     e( 13 - 16) =    -22.44444  eV     4   -->   4 G_2            
     e( 17 - 20) =    -22.43318  eV     4   -->   4 G_2            
     e( 21 - 22) =    -13.54975  eV     2   -->   2 G_2            
     e( 23 - 24) =    -13.54963  eV     2   -->   2 G_2            
     e( 25 - 28) =     -7.89940  eV     4   -->   4 G_2            
     e( 29 - 32) =     -5.53738  eV     4   -->   4 G_2            
     e( 33 - 36) =     -4.10007  eV     4   -->   4 G_2            
     e( 37 - 40) =     -2.84857  eV     4   -->   4 G_2            
     e( 41 - 44) =      1.58567  eV     4   -->   4 G_2            
     e( 45 - 48) =      2.40889  eV     4   -->   4 G_2            

 **************************************************************************

 **************************************************************************

                    xk=(   0.30000,   0.50493,   0.00000  )

     Band symmetry, C_1 (1)     double point group:

     e(  1 -  2) =    -22.52345  eV     2   -->   2 G_2            
     e(  3 -  4) =    -22.52335  eV     2   -->   2 G_2            
     e(  5 -  6) =    -22.49862  eV     2   -->   2 G_2            
     e(  7 -  8) =    -22.49850  eV     2   -->   2 G_2            
     e(  9 - 12) =    -22.47248  eV     4   -->   4 G_2            
     e( 13 - 16) =    -22.44440  eV     4   -->   4 G_2            
     e( 17 - 20) =    -22.43346  eV     4   -->   4 G_2            
     e( 21 - 22) =    -13.57241  eV     2   -->   2 G_2            
     e( 23 - 24) =    -13.57230  eV     2   -->   2 G_2            
     e( 25 - 28) =     -7.92484  eV     4   -->   4 G_2            
     e( 29 - 32) =     -5.44949  eV     4   -->   4 G_2            
     e( 33 - 36) =     -4.00235  eV     4   -->   4 G_2            
     e( 37 - 40) =     -2.79654  eV     4   -->   4 G_2            
     e( 41 - 44) =      1.38798  eV     4   -->   4 G_2            
     e( 45 - 48) =      2.35094  eV     4   -->   4 G_2            

 **************************************************************************

 **************************************************************************

                    xk=(   0.27500,   0.50493,   0.00000  )

     Band symmetry, C_1 (1)     double point group:

     e(  1 -  2) =    -22.52236  eV     2   -->   2 G_2            
     e(  3 -  4) =    -22.52225  eV     2   -->   2 G_2            
     e(  5 -  6) =    -22.49940  eV     2   -->   2 G_2            
     e(  7 -  8) =    -22.49928  eV     2   -->   2 G_2            
     e(  9 - 12) =    -22.47258  eV     4   -->   4 G_2            
     e( 13 - 16) =    -22.44434  eV     4   -->   4 G_2            
     e( 17 - 20) =    -22.43376  eV     4   -->   4 G_2            
     e( 21 - 22) =    -13.59592  eV     2   -->   2 G_2            
     e( 23 - 24) =    -13.59581  eV     2   -->   2 G_2            
     e( 25 - 28) =     -7.95321  eV     4   -->   4 G_2            
     e( 29 - 32) =     -5.34286  eV     4   -->   4 G_2            
     e( 33 - 36) =     -3.91690  eV     4   -->   4 G_2            
     e( 37 - 40) =     -2.72577  eV     4   -->   4 G_2            
     e( 41 - 44) =      1.17145  eV     4   -->   4 G_2            
     e( 45 - 48) =      2.28864  eV     4   -->   4 G_2            

 **************************************************************************

 **************************************************************************

                    xk=(   0.25000,   0.50493,   0.00000  )

     Band symmetry, C_1 (1)     double point group:

     e(  1 -  2) =    -22.52121  eV     2   -->   2 G_2            
     e(  3 -  4) =    -22.52110  eV     2   -->   2 G_2            
     e(  5 -  6) =    -22.50020  eV     2   -->   2 G_2            
     e(  7 -  8) =    -22.50008  eV     2   -->   2 G_2            
     e(  9 - 12) =    -22.47269  eV     4   -->   4 G_2            
     e( 13 - 16) =    -22.44424  eV     4   -->   4 G_2            
     e( 17 - 20) =    -22.43408  eV     4   -->   4 G_2            
     e( 21 - 22) =    -13.61967  eV     2   -->   2 G_2            
     e( 23 - 24) =    -13.61955  eV     2   -->   2 G_2            
     e( 25 - 28) =     -7.98350  eV     4   -->   4 G_2            
     e( 29 - 32) =     -5.21865  eV     4   -->   4 G_2            
     e( 33 - 36) =     -3.84731  eV     4   -->   4 G_2            
     e( 37 - 40) =     -2.63582  eV     4   -->   4 G_2            
     e( 41 - 44) =      0.94353  eV     4   -->   4 G_2            
     e( 45 - 48) =      2.22049  eV     4   -->   4 G_2            

 **************************************************************************

 **************************************************************************

                    xk=(   0.22500,   0.50493,   0.00000  )

     Band symmetry, C_1 (1)     double point group:

     e(  1 -  2) =    -22.52004  eV     2   -->   2 G_2            
     e(  3 -  4) =    -22.51993  eV     2   -->   2 G_2            
     e(  5 -  6) =    -22.50103  eV     2   -->   2 G_2            
     e(  7 -  8) =    -22.50091  eV     2   -->   2 G_2            
     e(  9 - 12) =    -22.47283  eV     4   -->   4 G_2            
     e( 13 - 16) =    -22.44411  eV     4   -->   4 G_2            
     e( 17 - 20) =    -22.43441  eV     4   -->   4 G_2            
     e( 21 - 22) =    -13.64306  eV     2   -->   2 G_2            
     e( 23 - 24) =    -13.64295  eV     2   -->   2 G_2            
     e( 25 - 28) =     -8.01462  eV     4   -->   4 G_2            
     e( 29 - 32) =     -5.07861  eV     4   -->   4 G_2            
     e( 33 - 36) =     -3.79450  eV     4   -->   4 G_2            
     e( 37 - 40) =     -2.52968  eV     4   -->   4 G_2            
     e( 41 - 44) =      0.71225  eV     4   -->   4 G_2            
     e( 45 - 48) =      2.14470  eV     4   -->   4 G_2            

 **************************************************************************

 **************************************************************************

                    xk=(   0.20000,   0.50493,   0.00000  )

     Band symmetry, C_1 (1)     double point group:

     e(  1 -  2) =    -22.51888  eV     2   -->   2 G_2            
     e(  3 -  4) =    -22.51877  eV     2   -->   2 G_2            
     e(  5 -  6) =    -22.50186  eV     2   -->   2 G_2            
     e(  7 -  8) =    -22.50174  eV     2   -->   2 G_2            
     e(  9 - 10) =    -22.47300  eV     2   -->   2 G_2            
     e( 11 - 12) =    -22.47290  eV     2   -->   2 G_2            
     e( 13 - 16) =    -22.44395  eV     4   -->   4 G_2            
     e( 17 - 20) =    -22.43475  eV     4   -->   4 G_2            
     e( 21 - 22) =    -13.66556  eV     2   -->   2 G_2            
     e( 23 - 24) =    -13.66544  eV     2   -->   2 G_2            
     e( 25 - 28) =     -8.04545  eV     4   -->   4 G_2            
     e( 29 - 32) =     -4.92502  eV     4   -->   4 G_2            
     e( 33 - 36) =     -3.75695  eV     4   -->   4 G_2            
     e( 37 - 40) =     -2.41406  eV     4   -->   4 G_2            
     e( 41 - 44) =      0.48661  eV     4   -->   4 G_2            
     e( 45 - 48) =      2.05818  eV     4   -->   4 G_2            

 **************************************************************************

 **************************************************************************

                    xk=(   0.17500,   0.50493,   0.00000  )

     Band symmetry, C_1 (1)     double point group:

     e(  1 -  2) =    -22.51774  eV     2   -->   2 G_2            
     e(  3 -  4) =    -22.51763  eV     2   -->   2 G_2            
     e(  5 -  6) =    -22.50267  eV     2   -->   2 G_2            
     e(  7 -  8) =    -22.50255  eV     2   -->   2 G_2            
     e(  9 - 10) =    -22.47317  eV     2   -->   2 G_2            
     e( 11 - 12) =    -22.47307  eV     2   -->   2 G_2            
     e( 13 - 16) =    -22.44377  eV     4   -->   4 G_2            
     e( 17 - 20) =    -22.43509  eV     4   -->   4 G_2            
     e( 21 - 22) =    -13.68665  eV     2   -->   2 G_2            
     e( 23 - 24) =    -13.68653  eV     2   -->   2 G_2            
     e( 25 - 28) =     -8.07499  eV     4   -->   4 G_2            
     e( 29 - 32) =     -4.76072  eV     4   -->   4 G_2            
     e( 33 - 36) =     -3.73184  eV     4   -->   4 G_2            
     e( 37 - 38) =     -2.29899  eV     2   -->   2 G_2            
     e( 39 - 40) =     -2.29889  eV     2   -->   2 G_2            
     e( 41 - 44) =      0.27709  eV     4   -->   4 G_2            
     e( 45 - 48) =      1.95613  eV     4   -->   4 G_2            

 **************************************************************************

 **************************************************************************

                    xk=(   0.15000,   0.50493,   0.00000  )

     Band symmetry, C_1 (1)     double point group:

     e(  1 -  2) =    -22.51665  eV     2   -->   2 G_2            
     e(  3 -  4) =    -22.51653  eV     2   -->   2 G_2            
     e(  5 -  6) =    -22.50345  eV     2   -->   2 G_2            
     e(  7 -  8) =    -22.50333  eV     2   -->   2 G_2            
     e(  9 - 10) =    -22.47335  eV     2   -->   2 G_2            
     e( 11 - 12) =    -22.47325  eV     2   -->   2 G_2            
     e( 13 - 16) =    -22.44357  eV     4   -->   4 G_2            
     e( 17 - 20) =    -22.43543  eV     4   -->   4 G_2            
     e( 21 - 22) =    -13.70587  eV     2   -->   2 G_2            
     e( 23 - 24) =    -13.70575  eV     2   -->   2 G_2            
     e( 25 - 28) =     -8.10231  eV     4   -->   4 G_2            
     e( 29 - 32) =     -4.58926  eV     4   -->   4 G_2            
     e( 33 - 36) =     -3.71609  eV     4   -->   4 G_2            
     e( 37 - 38) =     -2.19722  eV     2   -->   2 G_2            
     e( 39 - 40) =     -2.19711  eV     2   -->   2 G_2            
     e( 41 - 44) =      0.09621  eV     4   -->   4 G_2            
     e( 45 - 48) =      1.83383  eV     4   -->   4 G_2            

 **************************************************************************

 **************************************************************************

                    xk=(   0.12500,   0.50493,   0.00000  )

     Band symmetry, C_1 (1)     double point group:

     e(  1 -  2) =    -22.51564  eV     2   -->   2 G_2            
     e(  3 -  4) =    -22.51553  eV     2   -->   2 G_2            
     e(  5 -  6) =    -22.50417  eV     2   -->   2 G_2            
     e(  7 -  8) =    -22.50405  eV     2   -->   2 G_2            
     e(  9 - 10) =    -22.47353  eV     2   -->   2 G_2            
     e( 11 - 12) =    -22.47343  eV     2   -->   2 G_2            
     e( 13 - 16) =    -22.44336  eV     4   -->   4 G_2            
     e( 17 - 20) =    -22.43574  eV     4   -->   4 G_2            
     e( 21 - 22) =    -13.72282  eV     2   -->   2 G_2            
     e( 23 - 24) =    -13.72271  eV     2   -->   2 G_2            
     e( 25 - 28) =     -8.12666  eV     4   -->   4 G_2            
     e( 29 - 32) =     -4.41524  eV     4   -->   4 G_2            
     e( 33 - 36) =     -3.70701  eV     4   -->   4 G_2            
     e( 37 - 38) =     -2.12287  eV     2   -->   2 G_2            
     e( 39 - 40) =     -2.12277  eV     2   -->   2 G_2            
     e( 41 - 44) =     -0.04217  eV     4   -->   4 G_2            
     e( 45 - 48) =      1.69097  eV     4   -->   4 G_2            

 **************************************************************************

 **************************************************************************

                    xk=(   0.10000,   0.50493,   0.00000  )

     Band symmetry, C_1 (1)     double point group:

     e(  1 -  2) =    -22.51473  eV     2   -->   2 G_2            
     e(  3 -  4) =    -22.51462  eV     2   -->   2 G_2            
     e(  5 -  6) =    -22.50483  eV     2   -->   2 G_2            
     e(  7 -  8) =    -22.50471  eV     2   -->   2 G_2            
     e(  9 - 10) =    -22.47370  eV     2   -->   2 G_2            
     e( 11 - 12) =    -22.47359  eV     2   -->   2 G_2            
     e( 13 - 16) =    -22.44316  eV     4   -->   4 G_2            
     e( 17 - 20) =    -22.43604  eV     4   -->   4 G_2            
     e( 21 - 22) =    -13.73716  eV     2   -->   2 G_2            
     e( 23 - 24) =    -13.73705  eV     2   -->   2 G_2            
     e( 25 - 28) =     -8.14740  eV     4   -->   4 G_2            
     e( 29 - 32) =     -4.24487  eV     4   -->   4 G_2            
     e( 33 - 36) =     -3.70255  eV     4   -->   4 G_2            
     e( 37 - 38) =     -2.08746  eV     2   -->   2 G_2            
     e( 39 - 40) =     -2.08736  eV     2   -->   2 G_2            
     e( 41 - 44) =     -0.12658  eV     4   -->   4 G_2            
     e( 45 - 48) =      1.53475  eV     4   -->   4 G_2            

 **************************************************************************

 **************************************************************************

                    xk=(   0.07500,   0.50493,   0.00000  )

     Band symmetry, C_1 (1)     double point group:

     e(  1 -  2) =    -22.51396  eV     2   -->   2 G_2            
     e(  3 -  4) =    -22.51385  eV     2   -->   2 G_2            
     e(  5 -  6) =    -22.50539  eV     2   -->   2 G_2            
     e(  7 -  8) =    -22.50527  eV     2   -->   2 G_2            
     e(  9 - 10) =    -22.47384  eV     2   -->   2 G_2            
     e( 11 - 12) =    -22.47373  eV     2   -->   2 G_2            
     e( 13 - 14) =    -22.44297  eV     2   -->   2 G_2            
     e( 15 - 16) =    -22.44287  eV     2   -->   2 G_2            
     e( 17 - 18) =    -22.43628  eV     2   -->   2 G_2            
     e( 19 - 20) =    -22.43618  eV     2   -->   2 G_2            
     e( 21 - 22) =    -13.74861  eV     2   -->   2 G_2            
     e( 23 - 24) =    -13.74850  eV     2   -->   2 G_2            
     e( 25 - 28) =     -8.16403  eV     4   -->   4 G_2            
     e( 29 - 32) =     -4.08684  eV     4   -->   4 G_2            
     e( 33 - 36) =     -3.70140  eV     4   -->   4 G_2            
     e( 37 - 40) =     -2.09269  eV     4   -->   4 G_2            
     e( 41 - 44) =     -0.15533  eV     4   -->   4 G_2            
     e( 45 - 48) =      1.37850  eV     4   -->   4 G_2            

 **************************************************************************

 **************************************************************************

                    xk=(   0.05000,   0.50493,   0.00000  )

     Band symmetry, C_1 (1)     double point group:

     e(  1 -  2) =    -22.51337  eV     2   -->   2 G_2            
     e(  3 -  4) =    -22.51325  eV     2   -->   2 G_2            
     e(  5 -  6) =    -22.50584  eV     2   -->   2 G_2            
     e(  7 -  8) =    -22.50572  eV     2   -->   2 G_2            
     e(  9 - 10) =    -22.47395  eV     2   -->   2 G_2            
     e( 11 - 12) =    -22.47384  eV     2   -->   2 G_2            
     e( 13 - 14) =    -22.44283  eV     2   -->   2 G_2            
     e( 15 - 16) =    -22.44271  eV     2   -->   2 G_2            
     e( 17 - 18) =    -22.43648  eV     2   -->   2 G_2            
     e( 19 - 20) =    -22.43637  eV     2   -->   2 G_2            
     e( 21 - 22) =    -13.75695  eV     2   -->   2 G_2            
     e( 23 - 24) =    -13.75683  eV     2   -->   2 G_2            
     e( 25 - 28) =     -8.17617  eV     4   -->   4 G_2            
     e( 29 - 32) =     -3.95311  eV     4   -->   4 G_2            
     e( 33 - 36) =     -3.70299  eV     4   -->   4 G_2            
     e( 37 - 40) =     -2.12542  eV     4   -->   4 G_2            
     e( 41 - 44) =     -0.14222  eV     4   -->   4 G_2            
     e( 45 - 46) =      1.23998  eV     2   -->   2 G_2            
     e( 47 - 48) =      1.24008  eV     2   -->   2 G_2            

 **************************************************************************

 **************************************************************************

                    xk=(   0.02500,   0.50493,   0.00000  )

     Band symmetry, C_1 (1)     double point group:

     e(  1 -  2) =    -22.51298  eV     2   -->   2 G_2            
     e(  3 -  4) =    -22.51286  eV     2   -->   2 G_2            
     e(  5 -  6) =    -22.50613  eV     2   -->   2 G_2            
     e(  7 -  8) =    -22.50601  eV     2   -->   2 G_2            
     e(  9 - 10) =    -22.47402  eV     2   -->   2 G_2            
     e( 11 - 12) =    -22.47391  eV     2   -->   2 G_2            
     e( 13 - 14) =    -22.44273  eV     2   -->   2 G_2            
     e( 15 - 16) =    -22.44261  eV     2   -->   2 G_2            
     e( 17 - 18) =    -22.43661  eV     2   -->   2 G_2            
     e( 19 - 20) =    -22.43649  eV     2   -->   2 G_2            
     e( 21 - 22) =    -13.76201  eV     2   -->   2 G_2            
     e( 23 - 24) =    -13.76190  eV     2   -->   2 G_2            
     e( 25 - 28) =     -8.18355  eV     4   -->   4 G_2            
     e( 29 - 32) =     -3.85912  eV     4   -->   4 G_2            
     e( 33 - 36) =     -3.70721  eV     4   -->   4 G_2            
     e( 37 - 40) =     -2.16141  eV     4   -->   4 G_2            
     e( 41 - 44) =     -0.11422  eV     4   -->   4 G_2            
     e( 45 - 46) =      1.14116  eV     2   -->   2 G_2            
     e( 47 - 48) =      1.14126  eV     2   -->   2 G_2            

 **************************************************************************

 **************************************************************************

                    xk=(   0.00000,   0.50493,   0.00000  )

     double point group C_s (m)    
     there are  4 classes and  2 irreducible representations
     the character table:

       E     -E    s     -s   
                              
G_3    1.00 -1.00  0.00  0.00
G_4    1.00 -1.00  0.00  0.00

     imaginary part

       E     -E    s     -s   
                              
G_3    0.00  0.00  1.00 -1.00
G_4    0.00  0.00 -1.00  1.00

     the symmetry operations in each class and the name of the first element:

     E             1
                                                                 
     -E           -1
                                                                 
     s             2
                                                                 
     -s           -2
                                                                 

     Band symmetry, C_s (m)     double point group:

     e(  1 -  2) =    -22.51284  eV     2   --> G_3            
     e(  1 -  2) =    -22.51284  eV     2   --> G_4            
     e(  3 -  4) =    -22.51272  eV     2   --> G_3            
     e(  3 -  4) =    -22.51272  eV     2   --> G_4            
     e(  5 -  6) =    -22.50623  eV     2   --> G_3            
     e(  5 -  6) =    -22.50623  eV     2   --> G_4            
     e(  7 -  8) =    -22.50611  eV     2   --> G_3            
     e(  7 -  8) =    -22.50611  eV     2   --> G_4            
     e(  9 - 10) =    -22.47404  eV     2   --> G_3            
     e(  9 - 10) =    -22.47404  eV     2   --> G_4            
     e( 11 - 12) =    -22.47393  eV     2   --> G_3            
     e( 11 - 12) =    -22.47393  eV     2   --> G_4            
     e( 13 - 14) =    -22.44270  eV     2   --> G_3            
     e( 13 - 14) =    -22.44270  eV     2   --> G_4            
     e( 15 - 16) =    -22.44258  eV     2   --> G_3            
     e( 15 - 16) =    -22.44258  eV     2   --> G_4            
     e( 17 - 18) =    -22.43665  eV     2   --> G_3            
     e( 17 - 18) =    -22.43665  eV     2   --> G_4            
     e( 19 - 20) =    -22.43653  eV     2   --> G_3            
     e( 19 - 20) =    -22.43653  eV     2   --> G_4            
     e( 21 - 22) =    -13.76371  eV     2   --> G_3            
     e( 21 - 22) =    -13.76371  eV     2   --> G_4            
     e( 23 - 24) =    -13.76359  eV     2   --> G_3            
     e( 23 - 24) =    -13.76359  eV     2   --> G_4            
     e( 25 - 28) =     -8.18603  eV     4   -->   2 G_3            
     e( 25 - 28) =     -8.18603  eV     4   -->   2 G_4            
     e( 29 - 32) =     -3.82351  eV     4   -->   2 G_3            
     e( 29 - 32) =     -3.82351  eV     4   -->   2 G_4            
     e( 33 - 34) =     -3.71065  eV     2   --> G_3            
     e( 33 - 34) =     -3.71065  eV     2   --> G_4            
     e( 35 - 36) =     -3.71054  eV     2   --> G_3            
     e( 35 - 36) =     -3.71054  eV     2   --> G_4            
     e( 37 - 40) =     -2.17678  eV     4   -->   2 G_3            
     e( 37 - 40) =     -2.17678  eV     4   -->   2 G_4            
     e( 41 - 44) =     -0.10046  eV     4   -->   2 G_3            
     e( 41 - 44) =     -0.10046  eV     4   -->   2 G_4            
     e( 45 - 46) =      1.10467  eV     2   --> G_3            
     e( 45 - 46) =      1.10467  eV     2   --> G_4            
     e( 47 - 48) =      1.10478  eV     2   --> G_3            
     e( 47 - 48) =      1.10478  eV     2   --> G_4            

 **************************************************************************

 **************************************************************************

                    xk=(   0.00000,   0.47969,   0.00000  )

     Band symmetry, C_s (m)     double point group:

     e(  1 -  2) =    -22.51311  eV     2   --> G_3            
     e(  1 -  2) =    -22.51311  eV     2   --> G_4            
     e(  3 -  4) =    -22.51236  eV     2   --> G_3            
     e(  3 -  4) =    -22.51236  eV     2   --> G_4            
     e(  5 -  6) =    -22.50665  eV     2   --> G_3            
     e(  5 -  6) =    -22.50665  eV     2   --> G_4            
     e(  7 -  8) =    -22.50578  eV     2   --> G_3            
     e(  7 -  8) =    -22.50578  eV     2   --> G_4            
     e(  9 - 10) =    -22.47519  eV     2   --> G_3            
[...]
     e(  3 -  4) =    -22.51185  eV     2   --> G_4            
     e(  5 -  6) =    -22.50860  eV     2   --> G_3            
     e(  5 -  6) =    -22.50860  eV     2   --> G_4            
     e(  7 -  8) =    -22.50270  eV     2   --> G_3            
     e(  7 -  8) =    -22.50270  eV     2   --> G_4            
     e(  9 - 10) =    -22.49291  eV     2   --> G_3            
     e(  9 - 10) =    -22.49291  eV     2   --> G_4            
     e( 11 - 12) =    -22.46226  eV     2   --> G_3            
     e( 11 - 12) =    -22.46226  eV     2   --> G_4            
     e( 13 - 14) =    -22.44872  eV     2   --> G_3            
     e( 13 - 14) =    -22.44872  eV     2   --> G_4            
     e( 15 - 16) =    -22.44593  eV     2   --> G_3            
     e( 15 - 16) =    -22.44593  eV     2   --> G_4            
     e( 17 - 18) =    -22.43459  eV     2   --> G_3            
     e( 17 - 18) =    -22.43459  eV     2   --> G_4            
     e( 19 - 20) =    -22.42961  eV     2   --> G_3            
     e( 19 - 20) =    -22.42961  eV     2   --> G_4            
     e( 21 - 22) =    -14.55654  eV     2   --> G_3            
     e( 21 - 22) =    -14.55654  eV     2   --> G_4            
     e( 23 - 24) =    -13.27919  eV     2   --> G_3            
     e( 23 - 24) =    -13.27919  eV     2   --> G_4            
     e( 25 - 26) =     -8.05814  eV     2   --> G_3            
     e( 25 - 26) =     -8.05814  eV     2   --> G_4            
     e( 27 - 28) =     -6.53780  eV     2   --> G_3            
     e( 27 - 28) =     -6.53780  eV     2   --> G_4            
     e( 29 - 30) =     -4.82648  eV     2   --> G_3            
     e( 29 - 30) =     -4.82648  eV     2   --> G_4            
     e( 31 - 32) =     -4.79353  eV     2   --> G_3            
     e( 31 - 32) =     -4.79353  eV     2   --> G_4            
     e( 33 - 34) =     -4.23044  eV     2   --> G_3            
     e( 33 - 34) =     -4.23044  eV     2   --> G_4            
     e( 35 - 36) =     -3.46857  eV     2   --> G_3            
     e( 35 - 36) =     -3.46857  eV     2   --> G_4            
     e( 37 - 38) =     -2.71802  eV     2   --> G_3            
     e( 37 - 38) =     -2.71802  eV     2   --> G_4            
     e( 39 - 40) =     -1.98310  eV     2   --> G_3            
     e( 39 - 40) =     -1.98310  eV     2   --> G_4            
     e( 41 - 42) =      0.62548  eV     2   --> G_3            
     e( 41 - 42) =      0.62548  eV     2   --> G_4            
     e( 43 - 44) =      1.41757  eV     2   --> G_3            
     e( 43 - 44) =      1.41757  eV     2   --> G_4            
     e( 45 - 46) =      1.48024  eV     2   --> G_3            
     e( 45 - 46) =      1.48024  eV     2   --> G_4            
     e( 47 - 48) =      2.23299  eV     2   --> G_3            
     e( 47 - 48) =      2.23299  eV     2   --> G_4            

 **************************************************************************

 **************************************************************************

                    xk=(   0.00000,   0.10099,   0.00000  )

     Band symmetry, C_s (m)     double point group:

     e(  1 -  2) =    -22.51694  eV     2   --> G_3            
     e(  1 -  2) =    -22.51694  eV     2   --> G_4            
     e(  3 -  4) =    -22.51166  eV     2   --> G_3            
     e(  3 -  4) =    -22.51166  eV     2   --> G_4            
     e(  5 -  6) =    -22.50895  eV     2   --> G_3            
     e(  5 -  6) =    -22.50895  eV     2   --> G_4            
     e(  7 -  8) =    -22.50221  eV     2   --> G_3            
     e(  7 -  8) =    -22.50221  eV     2   --> G_4            
     e(  9 - 10) =    -22.49364  eV     2   --> G_3            
     e(  9 - 10) =    -22.49364  eV     2   --> G_4            
     e( 11 - 12) =    -22.46195  eV     2   --> G_3            
     e( 11 - 12) =    -22.46195  eV     2   --> G_4            
     e( 13 - 14) =    -22.44885  eV     2   --> G_3            
     e( 13 - 14) =    -22.44885  eV     2   --> G_4            
     e( 15 - 16) =    -22.44626  eV     2   --> G_3            
     e( 15 - 16) =    -22.44626  eV     2   --> G_4            
     e( 17 - 18) =    -22.43432  eV     2   --> G_3            
     e( 17 - 18) =    -22.43432  eV     2   --> G_4            
     e( 19 - 20) =    -22.42943  eV     2   --> G_3            
     e( 19 - 20) =    -22.42943  eV     2   --> G_4            
     e( 21 - 22) =    -14.58099  eV     2   --> G_3            
     e( 21 - 22) =    -14.58099  eV     2   --> G_4            
     e( 23 - 24) =    -13.27364  eV     2   --> G_3            
     e( 23 - 24) =    -13.27364  eV     2   --> G_4            
     e( 25 - 26) =     -8.02077  eV     2   --> G_3            
     e( 25 - 26) =     -8.02077  eV     2   --> G_4            
     e( 27 - 28) =     -6.44720  eV     2   --> G_3            
     e( 27 - 28) =     -6.44720  eV     2   --> G_4            
     e( 29 - 30) =     -4.85800  eV     2   --> G_3            
     e( 29 - 30) =     -4.85800  eV     2   --> G_4            
     e( 31 - 32) =     -4.82782  eV     2   --> G_3            
     e( 31 - 32) =     -4.82782  eV     2   --> G_4            
     e( 33 - 34) =     -4.26611  eV     2   --> G_3            
     e( 33 - 34) =     -4.26611  eV     2   --> G_4            
     e( 35 - 36) =     -3.48115  eV     2   --> G_3            
     e( 35 - 36) =     -3.48115  eV     2   --> G_4            
     e( 37 - 38) =     -2.79347  eV     2   --> G_3            
     e( 37 - 38) =     -2.79347  eV     2   --> G_4            
     e( 39 - 40) =     -1.94988  eV     2   --> G_3            
     e( 39 - 40) =     -1.94988  eV     2   --> G_4            
     e( 41 - 42) =      0.58583  eV     2   --> G_3            
     e( 41 - 42) =      0.58583  eV     2   --> G_4            
     e( 43 - 44) =      1.45261  eV     2   --> G_3            
     e( 43 - 44) =      1.45261  eV     2   --> G_4            
     e( 45 - 46) =      1.60269  eV     2   --> G_3            
     e( 45 - 46) =      1.60269  eV     2   --> G_4            
     e( 47 - 48) =      2.37150  eV     2   --> G_3            
     e( 47 - 48) =      2.37150  eV     2   --> G_4            

 **************************************************************************

 **************************************************************************

                    xk=(   0.00000,   0.07574,   0.00000  )

     Band symmetry, C_s (m)     double point group:

     e(  1 -  2) =    -22.51730  eV     2   --> G_3            
     e(  1 -  2) =    -22.51730  eV     2   --> G_4            
     e(  3 -  4) =    -22.51150  eV     2   --> G_3            
     e(  3 -  4) =    -22.51150  eV     2   --> G_4            
     e(  5 -  6) =    -22.50921  eV     2   --> G_3            
     e(  5 -  6) =    -22.50921  eV     2   --> G_4            
     e(  7 -  8) =    -22.50182  eV     2   --> G_3            
     e(  7 -  8) =    -22.50182  eV     2   --> G_4            
     e(  9 - 10) =    -22.49421  eV     2   --> G_3            
     e(  9 - 10) =    -22.49421  eV     2   --> G_4            
     e( 11 - 12) =    -22.46169  eV     2   --> G_3            
     e( 11 - 12) =    -22.46169  eV     2   --> G_4            
     e( 13 - 14) =    -22.44893  eV     2   --> G_3            
     e( 13 - 14) =    -22.44893  eV     2   --> G_4            
     e( 15 - 16) =    -22.44652  eV     2   --> G_3            
     e( 15 - 16) =    -22.44652  eV     2   --> G_4            
     e( 17 - 18) =    -22.43410  eV     2   --> G_3            
     e( 17 - 18) =    -22.43410  eV     2   --> G_4            
     e( 19 - 20) =    -22.42929  eV     2   --> G_3            
     e( 19 - 20) =    -22.42929  eV     2   --> G_4            
     e( 21 - 22) =    -14.60017  eV     2   --> G_3            
     e( 21 - 22) =    -14.60017  eV     2   --> G_4            
     e( 23 - 24) =    -13.26968  eV     2   --> G_3            
     e( 23 - 24) =    -13.26968  eV     2   --> G_4            
     e( 25 - 26) =     -7.98963  eV     2   --> G_3            
     e( 25 - 26) =     -7.98963  eV     2   --> G_4            
     e( 27 - 28) =     -6.37250  eV     2   --> G_3            
     e( 27 - 28) =     -6.37250  eV     2   --> G_4            
     e( 29 - 30) =     -4.88285  eV     2   --> G_3            
     e( 29 - 30) =     -4.88285  eV     2   --> G_4            
     e( 31 - 32) =     -4.85470  eV     2   --> G_3            
     e( 31 - 32) =     -4.85470  eV     2   --> G_4            
     e( 33 - 34) =     -4.29436  eV     2   --> G_3            
     e( 33 - 34) =     -4.29436  eV     2   --> G_4            
     e( 35 - 36) =     -3.49164  eV     2   --> G_3            
     e( 35 - 36) =     -3.49164  eV     2   --> G_4            
     e( 37 - 38) =     -2.85563  eV     2   --> G_3            
     e( 37 - 38) =     -2.85563  eV     2   --> G_4            
     e( 39 - 40) =     -1.92369  eV     2   --> G_3            
     e( 39 - 40) =     -1.92369  eV     2   --> G_4            
     e( 41 - 42) =      0.55482  eV     2   --> G_3            
     e( 41 - 42) =      0.55482  eV     2   --> G_4            
     e( 43 - 44) =      1.42314  eV     2   --> G_3            
     e( 43 - 44) =      1.42314  eV     2   --> G_4            
     e( 45 - 46) =      1.76265  eV     2   --> G_3            
     e( 45 - 46) =      1.76265  eV     2   --> G_4            
     e( 47 - 48) =      2.49095  eV     2   --> G_3            
     e( 47 - 48) =      2.49095  eV     2   --> G_4            

 **************************************************************************

 **************************************************************************

                    xk=(   0.00000,   0.05049,   0.00000  )

     Band symmetry, C_s (m)     double point group:

     e(  1 -  2) =    -22.51758  eV     2   --> G_3            
     e(  1 -  2) =    -22.51758  eV     2   --> G_4            
     e(  3 -  4) =    -22.51140  eV     2   --> G_3            
     e(  3 -  4) =    -22.51140  eV     2   --> G_4            
     e(  5 -  6) =    -22.50944  eV     2   --> G_3            
     e(  5 -  6) =    -22.50944  eV     2   --> G_4            
     e(  7 -  8) =    -22.50153  eV     2   --> G_3            
     e(  7 -  8) =    -22.50153  eV     2   --> G_4            
     e(  9 - 10) =    -22.49463  eV     2   --> G_3            
     e(  9 - 10) =    -22.49463  eV     2   --> G_4            
     e( 11 - 12) =    -22.46152  eV     2   --> G_3            
     e( 11 - 12) =    -22.46152  eV     2   --> G_4            
     e( 13 - 14) =    -22.44899  eV     2   --> G_3            
     e( 13 - 14) =    -22.44899  eV     2   --> G_4            
     e( 15 - 16) =    -22.44672  eV     2   --> G_3            
     e( 15 - 16) =    -22.44672  eV     2   --> G_4            
     e( 17 - 18) =    -22.43394  eV     2   --> G_3            
     e( 17 - 18) =    -22.43394  eV     2   --> G_4            
     e( 19 - 20) =    -22.42919  eV     2   --> G_3            
     e( 19 - 20) =    -22.42919  eV     2   --> G_4            
     e( 21 - 22) =    -14.61396  eV     2   --> G_3            
     e( 21 - 22) =    -14.61396  eV     2   --> G_4            
     e( 23 - 24) =    -13.26705  eV     2   --> G_3            
     e( 23 - 24) =    -13.26705  eV     2   --> G_4            
     e( 25 - 26) =     -7.96622  eV     2   --> G_3            
     e( 25 - 26) =     -7.96622  eV     2   --> G_4            
     e( 27 - 28) =     -6.31660  eV     2   --> G_3            
     e( 27 - 28) =     -6.31660  eV     2   --> G_4            
     e( 29 - 30) =     -4.90081  eV     2   --> G_3            
     e( 29 - 30) =     -4.90081  eV     2   --> G_4            
     e( 31 - 32) =     -4.87401  eV     2   --> G_3            
     e( 31 - 32) =     -4.87401  eV     2   --> G_4            
     e( 33 - 34) =     -4.31480  eV     2   --> G_3            
     e( 33 - 34) =     -4.31480  eV     2   --> G_4            
     e( 35 - 36) =     -3.49949  eV     2   --> G_3            
     e( 35 - 36) =     -3.49949  eV     2   --> G_4            
     e( 37 - 38) =     -2.90213  eV     2   --> G_3            
     e( 37 - 38) =     -2.90213  eV     2   --> G_4            
     e( 39 - 40) =     -1.90482  eV     2   --> G_3            
     e( 39 - 40) =     -1.90482  eV     2   --> G_4            
     e( 41 - 42) =      0.53259  eV     2   --> G_3            
     e( 41 - 42) =      0.53259  eV     2   --> G_4            
     e( 43 - 44) =      1.39775  eV     2   --> G_3            
     e( 43 - 44) =      1.39775  eV     2   --> G_4            
     e( 45 - 46) =      1.88783  eV     2   --> G_3            
     e( 45 - 46) =      1.88783  eV     2   --> G_4            
     e( 47 - 48) =      2.58377  eV     2   --> G_3            
     e( 47 - 48) =      2.58377  eV     2   --> G_4            

 **************************************************************************

 **************************************************************************

                    xk=(   0.00000,   0.02525,   0.00000  )

     Band symmetry, C_s (m)     double point group:

     e(  1 -  2) =    -22.51774  eV     2   --> G_3            
     e(  1 -  2) =    -22.51774  eV     2   --> G_4            
     e(  3 -  4) =    -22.51133  eV     2   --> G_3            
     e(  3 -  4) =    -22.51133  eV     2   --> G_4            
     e(  5 -  6) =    -22.50956  eV     2   --> G_3            
     e(  5 -  6) =    -22.50956  eV     2   --> G_4            
     e(  7 -  8) =    -22.50136  eV     2   --> G_3            
     e(  7 -  8) =    -22.50136  eV     2   --> G_4            
     e(  9 - 10) =    -22.49488  eV     2   --> G_3            
     e(  9 - 10) =    -22.49488  eV     2   --> G_4            
     e( 11 - 12) =    -22.46141  eV     2   --> G_3            
     e( 11 - 12) =    -22.46141  eV     2   --> G_4            
     e( 13 - 14) =    -22.44902  eV     2   --> G_3            
     e( 13 - 14) =    -22.44902  eV     2   --> G_4            
     e( 15 - 16) =    -22.44683  eV     2   --> G_3            
     e( 15 - 16) =    -22.44683  eV     2   --> G_4            
     e( 17 - 18) =    -22.43384  eV     2   --> G_3            
     e( 17 - 18) =    -22.43384  eV     2   --> G_4            
     e( 19 - 20) =    -22.42913  eV     2   --> G_3            
     e( 19 - 20) =    -22.42913  eV     2   --> G_4            
     e( 21 - 22) =    -14.62227  eV     2   --> G_3            
     e( 21 - 22) =    -14.62227  eV     2   --> G_4            
     e( 23 - 24) =    -13.26555  eV     2   --> G_3            
     e( 23 - 24) =    -13.26555  eV     2   --> G_4            
     e( 25 - 26) =     -7.95170  eV     2   --> G_3            
     e( 25 - 26) =     -7.95170  eV     2   --> G_4            
     e( 27 - 28) =     -6.28195  eV     2   --> G_3            
     e( 27 - 28) =     -6.28195  eV     2   --> G_4            
     e( 29 - 30) =     -4.91169  eV     2   --> G_3            
     e( 29 - 30) =     -4.91169  eV     2   --> G_4            
     e( 31 - 32) =     -4.88565  eV     2   --> G_3            
     e( 31 - 32) =     -4.88565  eV     2   --> G_4            
     e( 33 - 34) =     -4.32717  eV     2   --> G_3            
     e( 33 - 34) =     -4.32717  eV     2   --> G_4            
     e( 35 - 36) =     -3.50436  eV     2   --> G_3            
     e( 35 - 36) =     -3.50436  eV     2   --> G_4            
     e( 37 - 38) =     -2.93095  eV     2   --> G_3            
     e( 37 - 38) =     -2.93095  eV     2   --> G_4            
     e( 39 - 40) =     -1.89344  eV     2   --> G_3            
     e( 39 - 40) =     -1.89344  eV     2   --> G_4            
     e( 41 - 42) =      0.51921  eV     2   --> G_3            
     e( 41 - 42) =      0.51921  eV     2   --> G_4            
     e( 43 - 44) =      1.38077  eV     2   --> G_3            
     e( 43 - 44) =      1.38077  eV     2   --> G_4            
     e( 45 - 46) =      1.96834  eV     2   --> G_3            
     e( 45 - 46) =      1.96834  eV     2   --> G_4            
     e( 47 - 48) =      2.62316  eV     2   --> G_3            
     e( 47 - 48) =      2.62316  eV     2   --> G_4            

 **************************************************************************

 **************************************************************************

                    xk=(   0.00000,   0.00000,   0.00000  )

     Band symmetry, C_s (m)     double point group:

     e(  1 -  2) =    -22.51780  eV     2   --> G_3            
     e(  1 -  2) =    -22.51780  eV     2   --> G_4            
     e(  3 -  4) =    -22.51130  eV     2   --> G_3            
     e(  3 -  4) =    -22.51130  eV     2   --> G_4            
     e(  5 -  6) =    -22.50960  eV     2   --> G_3            
     e(  5 -  6) =    -22.50960  eV     2   --> G_4            
     e(  7 -  8) =    -22.50130  eV     2   --> G_3            
     e(  7 -  8) =    -22.50130  eV     2   --> G_4            
     e(  9 - 10) =    -22.49496  eV     2   --> G_3            
     e(  9 - 10) =    -22.49496  eV     2   --> G_4            
     e( 11 - 12) =    -22.46138  eV     2   --> G_3            
     e( 11 - 12) =    -22.46138  eV     2   --> G_4            
     e( 13 - 14) =    -22.44904  eV     2   --> G_3            
     e( 13 - 14) =    -22.44904  eV     2   --> G_4            
     e( 15 - 16) =    -22.44687  eV     2   --> G_3            
     e( 15 - 16) =    -22.44687  eV     2   --> G_4            
     e( 17 - 18) =    -22.43381  eV     2   --> G_3            
     e( 17 - 18) =    -22.43381  eV     2   --> G_4            
     e( 19 - 20) =    -22.42911  eV     2   --> G_3            
     e( 19 - 20) =    -22.42911  eV     2   --> G_4            
     e( 21 - 22) =    -14.62504  eV     2   --> G_3            
     e( 21 - 22) =    -14.62504  eV     2   --> G_4            
     e( 23 - 24) =    -13.26506  eV     2   --> G_3            
     e( 23 - 24) =    -13.26506  eV     2   --> G_4            
     e( 25 - 26) =     -7.94677  eV     2   --> G_3            
     e( 25 - 26) =     -7.94677  eV     2   --> G_4            
     e( 27 - 28) =     -6.27020  eV     2   --> G_3            
     e( 27 - 28) =     -6.27020  eV     2   --> G_4            
     e( 29 - 30) =     -4.91533  eV     2   --> G_3            
     e( 29 - 30) =     -4.91533  eV     2   --> G_4            
     e( 31 - 32) =     -4.88953  eV     2   --> G_3            
     e( 31 - 32) =     -4.88953  eV     2   --> G_4            
     e( 33 - 34) =     -4.33132  eV     2   --> G_3            
     e( 33 - 34) =     -4.33132  eV     2   --> G_4            
     e( 35 - 36) =     -3.50600  eV     2   --> G_3            
     e( 35 - 36) =     -3.50600  eV     2   --> G_4            
     e( 37 - 38) =     -2.94072  eV     2   --> G_3            
     e( 37 - 38) =     -2.94072  eV     2   --> G_4            
     e( 39 - 40) =     -1.88963  eV     2   --> G_3            
     e( 39 - 40) =     -1.88963  eV     2   --> G_4            
     e( 41 - 42) =      0.51475  eV     2   --> G_3            
     e( 41 - 42) =      0.51475  eV     2   --> G_4            
     e( 43 - 44) =      1.37483  eV     2   --> G_3            
     e( 43 - 44) =      1.37483  eV     2   --> G_4            
     e( 45 - 46) =      1.99622  eV     2   --> G_3            
     e( 45 - 46) =      1.99622  eV     2   --> G_4            
     e( 47 - 48) =      2.61847  eV     2   --> G_3            
     e( 47 - 48) =      2.61847  eV     2   --> G_4            

 **************************************************************************
 
     BANDS        :   4m27.28s CPU   6m30.01s WALL

 
   This run was terminated on:  13:33:40  19Mar2023            

=------------------------------------------------------------------------------=
   JOB DONE.
=------------------------------------------------------------------------------=
