
     Program PWSCF v.6.8 starts on 19Mar2023 at 13: 6:55 

     This program is part of the open-source Quantum ESPRESSO suite
     for quantum simulation of materials; please cite
         "P. Giannozzi et al., J. Phys.:Condens. Matter 21 395502 (2009);
         "P. Giannozzi et al., J. Phys.:Condens. Matter 29 465901 (2017);
         "P. Giannozzi et al., J. Chem. Phys. 152 154105 (2020);
          URL http://www.quantum-espresso.org", 
     in publications or presentations arising from this work. More details at
     http://www.quantum-espresso.org/quote

     Parallel version (MPI), running on    12 processors

     MPI processes distributed on     1 nodes
     R & G space division:  proc/nbgrp/npool/nimage =      12
     196723 MiB available memory on the printing compute node when the environment starts
 
     Waiting for input...
     Reading input from standard input

     Current dimensions of program PWSCF are:
     Max number of different atomic species (ntypx) = 10
     Max number of k-points (npk) =  40000
     Max angular momentum in pseudopotentials (lmaxx) =  4

     Atomic positions and unit cell read from directory:
     ./SnS.save/
     Atomic positions from file used, from input discarded
 
     Message from routine setup:
     At least one non s.o. pseudo
     Message from routine setup:
     using ibrav=0 with symmetry is DISCOURAGED, use correct ibrav instead

     Subspace diagonalization in iterative solution of the eigenvalue problem:
     a serial algorithm will be used

 
     Parallelization info
     --------------------
     sticks:   dense  smooth     PW     G-vecs:    dense   smooth      PW
     Min         211     105     30                37844    13375    2050
     Max         212     106     31                37854    13384    2062
     Sum        2541    1263    361               454169   160529   24671
 
     Using Slab Decomposition
 


     bravais-lattice index     =            0
     lattice parameter (alat)  =       8.1751  a.u.
     unit-cell volume          =    2557.5017 (a.u.)^3
     number of atoms/cell      =            4
     number of atomic types    =            2
     number of electrons       =        40.00
     number of Kohn-Sham states=           48
     kinetic-energy cutoff     =      60.0000  Ry
     charge density cutoff     =     480.0000  Ry
     Exchange-correlation= SLA  PW   PSX  PSC
                           (   1   4  10   8   0   0   0)
     Non magnetic calculation with spin-orbit


     celldm(1)=   8.175139  celldm(2)=   0.000000  celldm(3)=   0.000000
     celldm(4)=   0.000000  celldm(5)=   0.000000  celldm(6)=   0.000000

     crystal axes: (cart. coord. in units of alat)
               a(1) = (   1.000000   0.000000   0.000000 )  
               a(2) = (   0.000000   0.990230   0.000000 )  
               a(3) = (   0.000000   0.000000   4.727097 )  

     reciprocal axes: (cart. coord. in units 2 pi/alat)
               b(1) = (  1.000000  0.000000  0.000000 )  
               b(2) = (  0.000000  1.009867  0.000000 )  
               b(3) = (  0.000000  0.000000  0.211546 )  


     PseudoPot. # 1 for S  read from file:
     ./s_pbesol_v1.4.uspp.F.UPF
     MD5 check sum: 0ccfa86ec6eb59065d10aaae963ef2a7
     Pseudo is Ultrasoft + core correction, Zval =  6.0
     Generated by new atomic code, or converted to UPF format
     Using radial grid of  907 points,  6 beta functions with: 
                l(1) =   0
                l(2) =   0
                l(3) =   1
                l(4) =   1
                l(5) =   2
                l(6) =   2
     Q(r) pseudized with  8 coefficients,  rinner =    1.300   1.300   1.300
                                                       1.300   1.300

     PseudoPot. # 2 for Sn read from file:
     ./sn_pbesol_v1.4.uspp.F.UPF
     MD5 check sum: 463fec1d5456f1e96ec1bfcad4b7b038
     Pseudo is Ultrasoft + core correction, Zval = 14.0
     Generated by new atomic code, or converted to UPF format
     Using radial grid of  891 points,  6 beta functions with: 
                l(1) =   0
                l(2) =   0
                l(3) =   1
                l(4) =   1
                l(5) =   2
                l(6) =   2
     Q(r) pseudized with  8 coefficients,  rinner =    1.350   1.350   1.350
                                                       1.350   1.350

     atomic species   valence    mass     pseudopotential
        S              6.00    32.06500     S ( 1.00)
        Sn            14.00   118.71000     Sn( 1.00)

      2 Sym. Ops. (no inversion) found ( 1 have fractional translation)


                                    s                        frac. trans.

      isym =  1     identity                                     

 cryst.   s( 1) = (     1          0          0      )
                  (     0          1          0      )
                  (     0          0          1      )

 cart.    s( 1) = (  1.0000000  0.0000000  0.0000000 )
                  (  0.0000000  1.0000000  0.0000000 )
                  (  0.0000000  0.0000000  1.0000000 )


      isym =  2     inv. 180 deg rotation - cart. axis [1,0,0]   

 cryst.   s( 2) = (    -1          0          0      )    f =(  0.5000000 )
                  (     0          1          0      )       (  0.0000000 )
                  (     0          0          1      )       (  0.0000000 )

 cart.    s( 2) = ( -1.0000000  0.0000000  0.0000000 )    f =(  0.5000000 )
                  (  0.0000000  1.0000000  0.0000000 )       (  0.0000000 )
                  (  0.0000000  0.0000000  1.0000000 )       (  0.0000000 )


   Cartesian axes

     site n.     atom                  positions (alat units)
         1           Sn  tau(   1) = (   0.2500000   0.3758469   1.7155891  )
         2           Sn  tau(   2) = (   0.7500000   0.8709605   2.3376540  )
         3           S   tau(   3) = (   0.7500000   0.9650328   1.7572789  )
         4           S   tau(   4) = (   0.2500000   0.4699178   2.2959658  )

   Crystallographic axes

     site n.     atom                  positions (cryst. coord.)
         1           Sn  tau(   1) = (  0.2500000  0.3795553  0.3629266  )
         2           Sn  tau(   2) = (  0.7500000  0.8795540  0.4945222  )
         3           S   tau(   3) = (  0.7500000  0.9745544  0.3717459  )
         4           S   tau(   4) = (  0.2500000  0.4745543  0.4857032  )

     number of k points=    50  Marzari-Vanderbilt smearing, width (Ry)=  0.0147
                       cart. coord. in units 2pi/alat
        k(    1) = (   0.0000000   0.0000000   0.0000000), wk =   0.0078125
        k(    2) = (   0.0000000   0.0000000  -0.1057732), wk =   0.0078125
        k(    3) = (   0.0000000   0.1262333   0.0000000), wk =   0.0156250
        k(    4) = (   0.0000000   0.1262333  -0.1057732), wk =   0.0156250
        k(    5) = (   0.0000000   0.2524667   0.0000000), wk =   0.0156250
        k(    6) = (   0.0000000   0.2524667  -0.1057732), wk =   0.0156250
        k(    7) = (   0.0000000   0.3787000   0.0000000), wk =   0.0156250
        k(    8) = (   0.0000000   0.3787000  -0.1057732), wk =   0.0156250
        k(    9) = (   0.0000000  -0.5049333   0.0000000), wk =   0.0078125
        k(   10) = (   0.0000000  -0.5049333  -0.1057732), wk =   0.0078125
        k(   11) = (   0.1250000   0.0000000   0.0000000), wk =   0.0156250
        k(   12) = (   0.1250000   0.0000000  -0.1057732), wk =   0.0156250
        k(   13) = (   0.1250000   0.1262333   0.0000000), wk =   0.0312500
        k(   14) = (   0.1250000   0.1262333  -0.1057732), wk =   0.0312500
        k(   15) = (   0.1250000   0.2524667   0.0000000), wk =   0.0312500
        k(   16) = (   0.1250000   0.2524667  -0.1057732), wk =   0.0312500
        k(   17) = (   0.1250000   0.3787000   0.0000000), wk =   0.0312500
        k(   18) = (   0.1250000   0.3787000  -0.1057732), wk =   0.0312500
        k(   19) = (   0.1250000  -0.5049333   0.0000000), wk =   0.0156250
        k(   20) = (   0.1250000  -0.5049333  -0.1057732), wk =   0.0156250
        k(   21) = (   0.2500000   0.0000000   0.0000000), wk =   0.0156250
        k(   22) = (   0.2500000   0.0000000  -0.1057732), wk =   0.0156250
        k(   23) = (   0.2500000   0.1262333   0.0000000), wk =   0.0312500
        k(   24) = (   0.2500000   0.1262333  -0.1057732), wk =   0.0312500
        k(   25) = (   0.2500000   0.2524667   0.0000000), wk =   0.0312500
        k(   26) = (   0.2500000   0.2524667  -0.1057732), wk =   0.0312500
        k(   27) = (   0.2500000   0.3787000   0.0000000), wk =   0.0312500
        k(   28) = (   0.2500000   0.3787000  -0.1057732), wk =   0.0312500
        k(   29) = (   0.2500000  -0.5049333   0.0000000), wk =   0.0156250
        k(   30) = (   0.2500000  -0.5049333  -0.1057732), wk =   0.0156250
        k(   31) = (   0.3750000   0.0000000   0.0000000), wk =   0.0156250
        k(   32) = (   0.3750000   0.0000000  -0.1057732), wk =   0.0156250
        k(   33) = (   0.3750000   0.1262333   0.0000000), wk =   0.0312500
        k(   34) = (   0.3750000   0.1262333  -0.1057732), wk =   0.0312500
        k(   35) = (   0.3750000   0.2524667   0.0000000), wk =   0.0312500
        k(   36) = (   0.3750000   0.2524667  -0.1057732), wk =   0.0312500
        k(   37) = (   0.3750000   0.3787000   0.0000000), wk =   0.0312500
        k(   38) = (   0.3750000   0.3787000  -0.1057732), wk =   0.0312500
        k(   39) = (   0.3750000  -0.5049333   0.0000000), wk =   0.0156250
        k(   40) = (   0.3750000  -0.5049333  -0.1057732), wk =   0.0156250
        k(   41) = (  -0.5000000   0.0000000   0.0000000), wk =   0.0078125
        k(   42) = (  -0.5000000   0.0000000  -0.1057732), wk =   0.0078125
        k(   43) = (  -0.5000000   0.1262333   0.0000000), wk =   0.0156250
        k(   44) = (  -0.5000000   0.1262333  -0.1057732), wk =   0.0156250
        k(   45) = (  -0.5000000   0.2524667   0.0000000), wk =   0.0156250
        k(   46) = (  -0.5000000   0.2524667  -0.1057732), wk =   0.0156250
        k(   47) = (  -0.5000000   0.3787000   0.0000000), wk =   0.0156250
        k(   48) = (  -0.5000000   0.3787000  -0.1057732), wk =   0.0156250
        k(   49) = (  -0.5000000  -0.5049333   0.0000000), wk =   0.0078125
        k(   50) = (  -0.5000000  -0.5049333  -0.1057732), wk =   0.0078125

                       cryst. coord.
        k(    1) = (   0.0000000   0.0000000   0.0000000), wk =   0.0078125
        k(    2) = (   0.0000000   0.0000000  -0.5000000), wk =   0.0078125
        k(    3) = (   0.0000000   0.1250000   0.0000000), wk =   0.0156250
        k(    4) = (   0.0000000   0.1250000  -0.5000000), wk =   0.0156250
        k(    5) = (   0.0000000   0.2500000   0.0000000), wk =   0.0156250
        k(    6) = (   0.0000000   0.2500000  -0.5000000), wk =   0.0156250
        k(    7) = (   0.0000000   0.3750000   0.0000000), wk =   0.0156250
        k(    8) = (   0.0000000   0.3750000  -0.5000000), wk =   0.0156250
        k(    9) = (   0.0000000  -0.5000000   0.0000000), wk =   0.0078125
        k(   10) = (   0.0000000  -0.5000000  -0.5000000), wk =   0.0078125
        k(   11) = (   0.1250000   0.0000000   0.0000000), wk =   0.0156250
        k(   12) = (   0.1250000   0.0000000  -0.5000000), wk =   0.0156250
        k(   13) = (   0.1250000   0.1250000   0.0000000), wk =   0.0312500
        k(   14) = (   0.1250000   0.1250000  -0.5000000), wk =   0.0312500
        k(   15) = (   0.1250000   0.2500000   0.0000000), wk =   0.0312500
        k(   16) = (   0.1250000   0.2500000  -0.5000000), wk =   0.0312500
        k(   17) = (   0.1250000   0.3750000   0.0000000), wk =   0.0312500
        k(   18) = (   0.1250000   0.3750000  -0.5000000), wk =   0.0312500
        k(   19) = (   0.1250000  -0.5000000   0.0000000), wk =   0.0156250
        k(   20) = (   0.1250000  -0.5000000  -0.5000000), wk =   0.0156250
        k(   21) = (   0.2500000   0.0000000   0.0000000), wk =   0.0156250
        k(   22) = (   0.2500000   0.0000000  -0.5000000), wk =   0.0156250
        k(   23) = (   0.2500000   0.1250000   0.0000000), wk =   0.0312500
        k(   24) = (   0.2500000   0.1250000  -0.5000000), wk =   0.0312500
        k(   25) = (   0.2500000   0.2500000   0.0000000), wk =   0.0312500
        k(   26) = (   0.2500000   0.2500000  -0.5000000), wk =   0.0312500
        k(   27) = (   0.2500000   0.3750000   0.0000000), wk =   0.0312500
        k(   28) = (   0.2500000   0.3750000  -0.5000000), wk =   0.0312500
        k(   29) = (   0.2500000  -0.5000000   0.0000000), wk =   0.0156250
        k(   30) = (   0.2500000  -0.5000000  -0.5000000), wk =   0.0156250
        k(   31) = (   0.3750000   0.0000000   0.0000000), wk =   0.0156250
        k(   32) = (   0.3750000   0.0000000  -0.5000000), wk =   0.0156250
        k(   33) = (   0.3750000   0.1250000   0.0000000), wk =   0.0312500
        k(   34) = (   0.3750000   0.1250000  -0.5000000), wk =   0.0312500
        k(   35) = (   0.3750000   0.2500000   0.0000000), wk =   0.0312500
        k(   36) = (   0.3750000   0.2500000  -0.5000000), wk =   0.0312500
        k(   37) = (   0.3750000   0.3750000   0.0000000), wk =   0.0312500
        k(   38) = (   0.3750000   0.3750000  -0.5000000), wk =   0.0312500
        k(   39) = (   0.3750000  -0.5000000   0.0000000), wk =   0.0156250
        k(   40) = (   0.3750000  -0.5000000  -0.5000000), wk =   0.0156250
        k(   41) = (  -0.5000000   0.0000000   0.0000000), wk =   0.0078125
        k(   42) = (  -0.5000000   0.0000000  -0.5000000), wk =   0.0078125
        k(   43) = (  -0.5000000   0.1250000   0.0000000), wk =   0.0156250
        k(   44) = (  -0.5000000   0.1250000  -0.5000000), wk =   0.0156250
        k(   45) = (  -0.5000000   0.2500000   0.0000000), wk =   0.0156250
        k(   46) = (  -0.5000000   0.2500000  -0.5000000), wk =   0.0156250
        k(   47) = (  -0.5000000   0.3750000   0.0000000), wk =   0.0156250
        k(   48) = (  -0.5000000   0.3750000  -0.5000000), wk =   0.0156250
        k(   49) = (  -0.5000000  -0.5000000   0.0000000), wk =   0.0078125
        k(   50) = (  -0.5000000  -0.5000000  -0.5000000), wk =   0.0078125

     Dense  grid:   454169 G-vectors     FFT dimensions: (  60,  60, 270)

     Smooth grid:   160529 G-vectors     FFT dimensions: (  48,  40, 192)

     Dynamical RAM for                 wfc:       2.45 MB

     Dynamical RAM for     wfc (w. buffer):       2.45 MB

     Dynamical RAM for           str. fact:       1.15 MB

     Dynamical RAM for           local pot:       0.00 MB

     Dynamical RAM for          nlocal pot:       1.84 MB

     Dynamical RAM for                qrad:       3.52 MB

     Dynamical RAM for          rho,v,vnew:      14.51 MB

     Dynamical RAM for           G-vectors:       2.27 MB

     Dynamical RAM for          h,s,v(r/c):       0.42 MB

     Dynamical RAM for          <psi|beta>:       0.11 MB

     Dynamical RAM for                 psi:       4.90 MB

     Dynamical RAM for                hpsi:       4.90 MB

     Dynamical RAM for                spsi:       4.90 MB

     Dynamical RAM for      wfcinit/wfcrot:       4.04 MB

     Dynamical RAM for           addusdens:     108.56 MB

     Estimated static dynamical RAM per process >      32.52 MB

     Estimated max dynamical RAM per process >     141.08 MB

     Estimated total dynamical RAM >       1.65 GB

     The potential is recalculated from file :
     ./SnS.save/charge-density


     negative rho (up, down):  4.959E-05 0.000E+00
     Starting wfcs are   52 randomized atomic wfcs

     Band Structure Calculation
     Davidson diagonalization with overlap

     Computing kpt #:     1  of    50
     c_bands:  2 eigenvalues not converged
     total cpu time spent up to now is        7.1 secs

     Computing kpt #:     2  of    50
     total cpu time spent up to now is       12.2 secs

     Computing kpt #:     3  of    50
     total cpu time spent up to now is       16.6 secs

     Computing kpt #:     4  of    50
     total cpu time spent up to now is       20.8 secs

     Computing kpt #:     5  of    50
     total cpu time spent up to now is       25.0 secs

     Computing kpt #:     6  of    50
     total cpu time spent up to now is       29.1 secs

     Computing kpt #:     7  of    50
     total cpu time spent up to now is       34.0 secs

     Computing kpt #:     8  of    50
     total cpu time spent up to now is       38.9 secs

     Computing kpt #:     9  of    50
     total cpu time spent up to now is       43.2 secs

     Computing kpt #:    10  of    50
     total cpu time spent up to now is       47.4 secs

     Computing kpt #:    11  of    50
     total cpu time spent up to now is       51.8 secs

     Computing kpt #:    12  of    50
     total cpu time spent up to now is       56.3 secs

     Computing kpt #:    13  of    50
     total cpu time spent up to now is       60.8 secs

     Computing kpt #:    14  of    50
     total cpu time spent up to now is       65.3 secs

     Computing kpt #:    15  of    50
     total cpu time spent up to now is       69.7 secs

     Computing kpt #:    16  of    50
     total cpu time spent up to now is       74.2 secs

     Computing kpt #:    17  of    50
     total cpu time spent up to now is       78.7 secs

     Computing kpt #:    18  of    50
     total cpu time spent up to now is       83.1 secs

     Computing kpt #:    19  of    50
     total cpu time spent up to now is       87.7 secs

     Computing kpt #:    20  of    50
     total cpu time spent up to now is       92.3 secs

     Computing kpt #:    21  of    50
     total cpu time spent up to now is       96.8 secs

     Computing kpt #:    22  of    50
     total cpu time spent up to now is      101.3 secs

     Computing kpt #:    23  of    50
     total cpu time spent up to now is      106.9 secs

     Computing kpt #:    24  of    50
     total cpu time spent up to now is      111.7 secs

     Computing kpt #:    25  of    50
     total cpu time spent up to now is      116.2 secs

     Computing kpt #:    26  of    50
     total cpu time spent up to now is      120.7 secs

     Computing kpt #:    27  of    50
     total cpu time spent up to now is      125.3 secs

     Computing kpt #:    28  of    50
     total cpu time spent up to now is      129.9 secs

     Computing kpt #:    29  of    50
     total cpu time spent up to now is      134.5 secs

     Computing kpt #:    30  of    50
     total cpu time spent up to now is      139.2 secs

     Computing kpt #:    31  of    50
     total cpu time spent up to now is      144.3 secs

     Computing kpt #:    32  of    50
     total cpu time spent up to now is      149.2 secs

     Computing kpt #:    33  of    50
     total cpu time spent up to now is      153.8 secs

     Computing kpt #:    34  of    50
     total cpu time spent up to now is      158.3 secs

     Computing kpt #:    35  of    50
     total cpu time spent up to now is      162.8 secs

     Computing kpt #:    36  of    50
     total cpu time spent up to now is      167.5 secs

     Computing kpt #:    37  of    50
     total cpu time spent up to now is      172.4 secs

     Computing kpt #:    38  of    50
     total cpu time spent up to now is      177.3 secs

     Computing kpt #:    39  of    50
     total cpu time spent up to now is      181.7 secs

     Computing kpt #:    40  of    50
     total cpu time spent up to now is      186.2 secs

     Computing kpt #:    41  of    50
     total cpu time spent up to now is      190.8 secs

     Computing kpt #:    42  of    50
     total cpu time spent up to now is      195.4 secs

     Computing kpt #:    43  of    50
     total cpu time spent up to now is      200.2 secs

     Computing kpt #:    44  of    50
     total cpu time spent up to now is      205.0 secs

     Computing kpt #:    45  of    50
     total cpu time spent up to now is      209.7 secs

     Computing kpt #:    46  of    50
     total cpu time spent up to now is      214.3 secs

     Computing kpt #:    47  of    50
     total cpu time spent up to now is      218.8 secs

     Computing kpt #:    48  of    50
     total cpu time spent up to now is      223.3 secs

     Computing kpt #:    49  of    50
     total cpu time spent up to now is      227.5 secs

     Computing kpt #:    50  of    50
     total cpu time spent up to now is      231.6 secs

     ethr =  2.00E-12,  avg # of iterations = 72.0

     total cpu time spent up to now is      231.6 secs

     End of band structure calculation

          k = 0.0000 0.0000 0.0000 ( 20009 PWs)   bands (ev):

   -22.5178 -22.5178 -22.5113 -22.5113 -22.5096 -22.5096 -22.5013 -22.5013
   -22.4950 -22.4950 -22.4614 -22.4614 -22.4490 -22.4490 -22.4469 -22.4469
   -22.4338 -22.4338 -22.4291 -22.4291 -14.6250 -14.6250 -13.2651 -13.2651
    -7.9468  -7.9468  -6.2702  -6.2702  -4.9153  -4.9153  -4.8895  -4.8895
    -4.3313  -4.3313  -3.5060  -3.5060  -2.9407  -2.9407  -1.8896  -1.8896
     0.5147   0.5147   1.3748   1.3748   1.9962   1.9962   2.6185   2.6185

     occupation numbers 
     1.0000   1.0000   1.0000   1.0000   1.0000   1.0000   1.0000   1.0000
     1.0000   1.0000   1.0000   1.0000   1.0000   1.0000   1.0000   1.0000
     1.0000   1.0000   1.0000   1.0000   1.0000   1.0000   1.0000   1.0000
     1.0000   1.0000   1.0000   1.0000   1.0000   1.0000   1.0000   1.0000
     1.0000   1.0000   1.0000   1.0000   1.0000   1.0000   1.0000   1.0000
     0.0000   0.0000   0.0000   0.0000   0.0000   0.0000   0.0000   0.0000

          k = 0.0000 0.0000-0.1058 ( 19996 PWs)   bands (ev):

   -22.5178 -22.5178 -22.5113 -22.5113 -22.5096 -22.5096 -22.5013 -22.5013
   -22.4949 -22.4949 -22.4614 -22.4614 -22.4490 -22.4490 -22.4469 -22.4469
   -22.4338 -22.4338 -22.4291 -22.4291 -14.6250 -14.6250 -13.2651 -13.2651
    -7.9468  -7.9468  -6.2702  -6.2702  -4.9153  -4.9153  -4.8895  -4.8895
    -4.3313  -4.3313  -3.5060  -3.5060  -2.9407  -2.9407  -1.8896  -1.8896
     0.5147   0.5147   1.3748   1.3748   1.9968   1.9968   2.6580   2.6580

     occupation numbers 
     1.0000   1.0000   1.0000   1.0000   1.0000   1.0000   1.0000   1.0000
     1.0000   1.0000   1.0000   1.0000   1.0000   1.0000   1.0000   1.0000
     1.0000   1.0000   1.0000   1.0000   1.0000   1.0000   1.0000   1.0000
     1.0000   1.0000   1.0000   1.0000   1.0000   1.0000   1.0000   1.0000
     1.0000   1.0000   1.0000   1.0000   1.0000   1.0000   1.0000   1.0000
     0.0000   0.0000   0.0000   0.0000   0.0000   0.0000   0.0000   0.0000

          k = 0.0000 0.1262 0.0000 ( 20050 PWs)   bands (ev):

   -22.5165 -22.5165 -22.5118 -22.5118 -22.5086 -22.5086 -22.5027 -22.5027
   -22.4929 -22.4929 -22.4623 -22.4623 -22.4487 -22.4487 -22.4459 -22.4459
   -22.4346 -22.4346 -22.4296 -22.4296 -14.5565 -14.5565 -13.2792 -13.2792
    -8.0581  -8.0581  -6.5378  -6.5378  -4.8265  -4.8265  -4.7935  -4.7935
    -4.2304  -4.2304  -3.4686  -3.4686  -2.7180  -2.7180  -1.9831  -1.9831
     0.6255   0.6255   1.4176   1.4176   1.4802   1.4802   2.2330   2.2330

     occupation numbers 
     1.0000   1.0000   1.0000   1.0000   1.0000   1.0000   1.0000   1.0000
     1.0000   1.0000   1.0000   1.0000   1.0000   1.0000   1.0000   1.0000
     1.0000   1.0000   1.0000   1.0000   1.0000   1.0000   1.0000   1.0000
     1.0000   1.0000   1.0000   1.0000   1.0000   1.0000   1.0000   1.0000
     1.0000   1.0000   1.0000   1.0000   1.0000   1.0000   1.0000   1.0000
     0.0000   0.0000   0.0000   0.0000   0.0000   0.0000   0.0000   0.0000

          k = 0.0000 0.1262-0.1058 ( 20026 PWs)   bands (ev):

   -22.5165 -22.5165 -22.5118 -22.5118 -22.5086 -22.5086 -22.5027 -22.5027
   -22.4929 -22.4929 -22.4623 -22.4623 -22.4487 -22.4487 -22.4459 -22.4459
   -22.4346 -22.4346 -22.4296 -22.4296 -14.5565 -14.5565 -13.2792 -13.2792
    -8.0581  -8.0581  -6.5378  -6.5378  -4.8265  -4.8265  -4.7935  -4.7935
    -4.2304  -4.2304  -3.4686  -3.4686  -2.7180  -2.7180  -1.9831  -1.9831
     0.6254   0.6254   1.4176   1.4176   1.4802   1.4802   2.2330   2.2330

     occupation numbers 
     1.0000   1.0000   1.0000   1.0000   1.0000   1.0000   1.0000   1.0000
     1.0000   1.0000   1.0000   1.0000   1.0000   1.0000   1.0000   1.0000
     1.0000   1.0000   1.0000   1.0000   1.0000   1.0000   1.0000   1.0000
     1.0000   1.0000   1.0000   1.0000   1.0000   1.0000   1.0000   1.0000
     1.0000   1.0000   1.0000   1.0000   1.0000   1.0000   1.0000   1.0000
     0.0000   0.0000   0.0000   0.0000   0.0000   0.0000   0.0000   0.0000

          k = 0.0000 0.2525 0.0000 ( 19998 PWs)   bands (ev):

   -22.5131 -22.5131 -22.5130 -22.5130 -22.5065 -22.5065 -22.5061 -22.5061
   -22.4874 -22.4874 -22.4648 -22.4648 -22.4476 -22.4476 -22.4434 -22.4434
   -22.4366 -22.4366 -22.4311 -22.4311 -14.3620 -14.3620 -13.3434 -13.3434
    -8.2726  -8.2726  -7.1282  -7.1282  -4.5775  -4.5775  -4.5205  -4.5205
    -3.9637  -3.9637  -3.4038  -3.4038  -2.2300  -2.2300  -2.2296  -2.2296
     0.3659   0.3659   0.9384   0.9384   1.3689   1.3689   1.4786   1.4786

     occupation numbers 
     1.0000   1.0000   1.0000   1.0000   1.0000   1.0000   1.0000   1.0000
     1.0000   1.0000   1.0000   1.0000   1.0000   1.0000   1.0000   1.0000
     1.0000   1.0000   1.0000   1.0000   1.0000   1.0000   1.0000   1.0000
     1.0000   1.0000   1.0000   1.0000   1.0000   1.0000   1.0000   1.0000
     1.0000   1.0000   1.0000   1.0000   1.0000   1.0000   1.0000   1.0000
     0.0000   0.0000   0.0000   0.0000   0.0000   0.0000   0.0000   0.0000

          k = 0.0000 0.2525-0.1058 ( 20066 PWs)   bands (ev):

   -22.5131 -22.5131 -22.5130 -22.5130 -22.5065 -22.5065 -22.5061 -22.5061
   -22.4874 -22.4874 -22.4648 -22.4648 -22.4476 -22.4476 -22.4434 -22.4434
   -22.4367 -22.4367 -22.4311 -22.4311 -14.3620 -14.3620 -13.3434 -13.3434
    -8.2726  -8.2726  -7.1282  -7.1282  -4.5775  -4.5775  -4.5205  -4.5205
    -3.9637  -3.9637  -3.4038  -3.4038  -2.2300  -2.2300  -2.2296  -2.2296
     0.3659   0.3659   0.9384   0.9384   1.3689   1.3689   1.4786   1.4786

     occupation numbers 
     1.0000   1.0000   1.0000   1.0000   1.0000   1.0000   1.0000   1.0000
     1.0000   1.0000   1.0000   1.0000   1.0000   1.0000   1.0000   1.0000
     1.0000   1.0000   1.0000   1.0000   1.0000   1.0000   1.0000   1.0000
     1.0000   1.0000   1.0000   1.0000   1.0000   1.0000   1.0000   1.0000
     1.0000   1.0000   1.0000   1.0000   1.0000   1.0000   1.0000   1.0000
     0.0000   0.0000   0.0000   0.0000   0.0000   0.0000   0.0000   0.0000

          k = 0.0000 0.3787 0.0000 ( 20090 PWs)   bands (ev):

   -22.5137 -22.5137 -22.5100 -22.5100 -22.5092 -22.5092 -22.5052 -22.5052
   -22.4805 -22.4805 -22.4688 -22.4688 -22.4456 -22.4456 -22.4401 -22.4401
   -22.4395 -22.4395 -22.4335 -22.4335 -14.0769 -14.0769 -13.5015 -13.5015
    -8.3631  -8.3631  -7.7401  -7.7401  -4.2095  -4.2095  -4.1226  -4.1226
    -3.7014  -3.7014  -3.4467  -3.4467  -2.4300  -2.4300  -1.8708  -1.8708
    -0.3721  -0.3721   0.6547   0.6547   1.0133   1.0133   1.5066   1.5066

     occupation numbers 
     1.0000   1.0000   1.0000   1.0000   1.0000   1.0000   1.0000   1.0000
     1.0000   1.0000   1.0000   1.0000   1.0000   1.0000   1.0000   1.0000
     1.0000   1.0000   1.0000   1.0000   1.0000   1.0000   1.0000   1.0000
     1.0000   1.0000   1.0000   1.0000   1.0000   1.0000   1.0000   1.0000
     1.0000   1.0000   1.0000   1.0000   1.0000   1.0000   1.0000   1.0000
     0.0000   0.0000   0.0000   0.0000   0.0000   0.0000   0.0000   0.0000

          k = 0.0000 0.3787-0.1058 ( 20060 PWs)   bands (ev):

   -22.5137 -22.5137 -22.5100 -22.5100 -22.5092 -22.5092 -22.5052 -22.5052
   -22.4805 -22.4805 -22.4688 -22.4688 -22.4455 -22.4455 -22.4401 -22.4401
   -22.4395 -22.4395 -22.4335 -22.4335 -14.0769 -14.0769 -13.5015 -13.5015
    -8.3631  -8.3631  -7.7401  -7.7401  -4.2095  -4.2095  -4.1226  -4.1226
    -3.7014  -3.7014  -3.4467  -3.4467  -2.4300  -2.4300  -1.8708  -1.8708
    -0.3721  -0.3721   0.6547   0.6547   1.0133   1.0133   1.5065   1.5065

     occupation numbers 
     1.0000   1.0000   1.0000   1.0000   1.0000   1.0000   1.0000   1.0000
     1.0000   1.0000   1.0000   1.0000   1.0000   1.0000   1.0000   1.0000
     1.0000   1.0000   1.0000   1.0000   1.0000   1.0000   1.0000   1.0000
     1.0000   1.0000   1.0000   1.0000   1.0000   1.0000   1.0000   1.0000
     1.0000   1.0000   1.0000   1.0000   1.0000   1.0000   1.0000   1.0000
     0.0000   0.0000   0.0000   0.0000   0.0000   0.0000   0.0000   0.0000

          k = 0.0000-0.5049 0.0000 ( 20084 PWs)   bands (ev):

   -22.5128 -22.5128 -22.5127 -22.5127 -22.5062 -22.5062 -22.5061 -22.5061
   -22.4740 -22.4740 -22.4739 -22.4739 -22.4427 -22.4427 -22.4426 -22.4426
   -22.4366 -22.4366 -22.4365 -22.4365 -13.7637 -13.7637 -13.7636 -13.7636
    -8.1860  -8.1860  -8.1860  -8.1860  -3.8235  -3.8235  -3.8235  -3.8235
    -3.7106  -3.7106  -3.7105  -3.7105  -2.1768  -2.1768  -2.1767  -2.1767
    -0.1005  -0.1005  -0.1004  -0.1004   1.1047   1.1047   1.1048   1.1048

     occupation numbers 
     1.0000   1.0000   1.0000   1.0000   1.0000   1.0000   1.0000   1.0000
     1.0000   1.0000   1.0000   1.0000   1.0000   1.0000   1.0000   1.0000
     1.0000   1.0000   1.0000   1.0000   1.0000   1.0000   1.0000   1.0000
     1.0000   1.0000   1.0000   1.0000   1.0000   1.0000   1.0000   1.0000
     1.0000   1.0000   1.0000   1.0000   1.0000   1.0000   1.0000   1.0000
     0.0000   0.0000   0.0000   0.0000   0.0000   0.0000   0.0000   0.0000

          k = 0.0000-0.5049-0.1058 ( 20048 PWs)   bands (ev):

   -22.5128 -22.5128 -22.5127 -22.5127 -22.5062 -22.5062 -22.5061 -22.5061
   -22.4740 -22.4740 -22.4739 -22.4739 -22.4427 -22.4427 -22.4426 -22.4426
   -22.4366 -22.4366 -22.4365 -22.4365 -13.7637 -13.7637 -13.7636 -13.7636
    -8.1860  -8.1860  -8.1860  -8.1860  -3.8235  -3.8235  -3.8235  -3.8235
    -3.7106  -3.7106  -3.7105  -3.7105  -2.1768  -2.1768  -2.1767  -2.1767
    -0.1005  -0.1005  -0.1004  -0.1004   1.1047   1.1047   1.1048   1.1048

     occupation numbers 
     1.0000   1.0000   1.0000   1.0000   1.0000   1.0000   1.0000   1.0000
     1.0000   1.0000   1.0000   1.0000   1.0000   1.0000   1.0000   1.0000
     1.0000   1.0000   1.0000   1.0000   1.0000   1.0000   1.0000   1.0000
     1.0000   1.0000   1.0000   1.0000   1.0000   1.0000   1.0000   1.0000
     1.0000   1.0000   1.0000   1.0000   1.0000   1.0000   1.0000   1.0000
     0.0000   0.0000   0.0000   0.0000   0.0000   0.0000   0.0000   0.0000

          k = 0.1250 0.0000 0.0000 ( 20002 PWs)   bands (ev):

   -22.5163 -22.5163 -22.5125 -22.5125 -22.5085 -22.5085 -22.5047 -22.5047
   -22.4911 -22.4911 -22.4619 -22.4619 -22.4481 -22.4481 -22.4465 -22.4465
   -22.4339 -22.4339 -22.4303 -22.4303 -14.5515 -14.5515 -13.2671 -13.2671
    -8.1338  -8.1338  -6.5971  -6.5971  -4.8965  -4.8965  -4.7365  -4.7365
    -4.2247  -4.2247  -3.2504  -3.2504  -2.8222  -2.8222  -1.9627  -1.9627
     0.6114   0.6114   1.6015   1.6015   1.8070   1.8070   1.9561   1.9561

     occupation numbers 
     1.0000   1.0000   1.0000   1.0000   1.0000   1.0000   1.0000   1.0000
     1.0000   1.0000   1.0000   1.0000   1.0000   1.0000   1.0000   1.0000
     1.0000   1.0000   1.0000   1.0000   1.0000   1.0000   1.0000   1.0000
     1.0000   1.0000   1.0000   1.0000   1.0000   1.0000   1.0000   1.0000
     1.0000   1.0000   1.0000   1.0000   1.0000   1.0000   1.0000   1.0000
     0.0000   0.0000   0.0000   0.0000   0.0000   0.0000   0.0000   0.0000

          k = 0.1250 0.0000-0.1058 ( 20004 PWs)   bands (ev):

   -22.5163 -22.5163 -22.5125 -22.5125 -22.5085 -22.5085 -22.5047 -22.5047
   -22.4911 -22.4911 -22.4619 -22.4619 -22.4481 -22.4481 -22.4465 -22.4465
   -22.4339 -22.4339 -22.4303 -22.4303 -14.5515 -14.5515 -13.2671 -13.2671
    -8.1338  -8.1338  -6.5971  -6.5971  -4.8965  -4.8965  -4.7365  -4.7365
    -4.2247  -4.2247  -3.2504  -3.2504  -2.8222  -2.8222  -1.9627  -1.9627
     0.6113   0.6113   1.6015   1.6015   1.8070   1.8070   1.9564   1.9564

     occupation numbers 
     1.0000   1.0000   1.0000   1.0000   1.0000   1.0000   1.0000   1.0000
     1.0000   1.0000   1.0000   1.0000   1.0000   1.0000   1.0000   1.0000
     1.0000   1.0000   1.0000   1.0000   1.0000   1.0000   1.0000   1.0000
     1.0000   1.0000   1.0000   1.0000   1.0000   1.0000   1.0000   1.0000
     1.0000   1.0000   1.0000   1.0000   1.0000   1.0000   1.0000   1.0000
     0.0000   0.0000   0.0000   0.0000   0.0000   0.0000   0.0000   0.0000

          k = 0.1250 0.1262 0.0000 ( 20025 PWs)   bands (ev):

   -22.5151 -22.5151 -22.5131 -22.5131 -22.5075 -22.5075 -22.5057 -22.5057
   -22.4895 -22.4895 -22.4627 -22.4627 -22.4485 -22.4485 -22.4450 -22.4450
   -22.4349 -22.4349 -22.4304 -22.4304 -14.4846 -14.4846 -13.2789 -13.2789
    -8.1798  -8.1798  -6.7672  -6.7672  -4.9736  -4.9736  -4.8091  -4.8091
    -3.8722  -3.8722  -3.5061  -3.5061  -2.4878  -2.4878  -2.0169  -2.0169
     0.7250   0.7250   1.0555   1.0555   1.5834   1.5834   2.2391   2.2391

     occupation numbers 
     1.0000   1.0000   1.0000   1.0000   1.0000   1.0000   1.0000   1.0000
     1.0000   1.0000   1.0000   1.0000   1.0000   1.0000   1.0000   1.0000
     1.0000   1.0000   1.0000   1.0000   1.0000   1.0000   1.0000   1.0000
     1.0000   1.0000   1.0000   1.0000   1.0000   1.0000   1.0000   1.0000
     1.0000   1.0000   1.0000   1.0000   1.0000   1.0000   1.0000   1.0000
     0.0000   0.0000   0.0000   0.0000   0.0000   0.0000   0.0000   0.0000

          k = 0.1250 0.1262-0.1058 ( 20032 PWs)   bands (ev):

   -22.5151 -22.5151 -22.5131 -22.5131 -22.5075 -22.5075 -22.5057 -22.5057
   -22.4895 -22.4895 -22.4627 -22.4627 -22.4485 -22.4485 -22.4450 -22.4450
   -22.4349 -22.4349 -22.4304 -22.4304 -14.4846 -14.4846 -13.2789 -13.2789
    -8.1798  -8.1798  -6.7672  -6.7672  -4.9736  -4.9736  -4.8091  -4.8091
    -3.8722  -3.8722  -3.5061  -3.5061  -2.4878  -2.4878  -2.0169  -2.0169
     0.7249   0.7249   1.0555   1.0555   1.5834   1.5834   2.2395   2.2395

     occupation numbers 
     1.0000   1.0000   1.0000   1.0000   1.0000   1.0000   1.0000   1.0000
     1.0000   1.0000   1.0000   1.0000   1.0000   1.0000   1.0000   1.0000
     1.0000   1.0000   1.0000   1.0000   1.0000   1.0000   1.0000   1.0000
     1.0000   1.0000   1.0000   1.0000   1.0000   1.0000   1.0000   1.0000
     1.0000   1.0000   1.0000   1.0000   1.0000   1.0000   1.0000   1.0000
     0.0000   0.0000   0.0000   0.0000   0.0000   0.0000   0.0000   0.0000

          k = 0.1250 0.2525 0.0000 ( 20032 PWs)   bands (ev):

   -22.5146 -22.5146 -22.5129 -22.5129 -22.5076 -22.5076 -22.5051 -22.5051
   -22.4851 -22.4851 -22.4651 -22.4651 -22.4480 -22.4480 -22.4422 -22.4422
   -22.4373 -22.4373 -22.4312 -22.4312 -14.2955 -14.2955 -13.3350 -13.3350
    -8.2809  -8.2809  -7.2056  -7.2056  -5.0744  -5.0744  -4.5635  -4.5635
    -3.7039  -3.7039  -3.4595  -3.4595  -2.2265  -2.2265  -2.1305  -2.1305
     0.3931   0.3931   0.9621   0.9621   1.0863   1.0863   1.8943   1.8943

     occupation numbers 
     1.0000   1.0000   1.0000   1.0000   1.0000   1.0000   1.0000   1.0000
     1.0000   1.0000   1.0000   1.0000   1.0000   1.0000   1.0000   1.0000
     1.0000   1.0000   1.0000   1.0000   1.0000   1.0000   1.0000   1.0000
     1.0000   1.0000   1.0000   1.0000   1.0000   1.0000   1.0000   1.0000
     1.0000   1.0000   1.0000   1.0000   1.0000   1.0000   1.0000   1.0000
     0.0000   0.0000   0.0000   0.0000   0.0000   0.0000   0.0000   0.0000

          k = 0.1250 0.2525-0.1058 ( 20054 PWs)   bands (ev):

   -22.5146 -22.5146 -22.5129 -22.5129 -22.5076 -22.5076 -22.5051 -22.5051
   -22.4851 -22.4851 -22.4652 -22.4652 -22.4480 -22.4480 -22.4422 -22.4422
   -22.4373 -22.4373 -22.4312 -22.4312 -14.2955 -14.2955 -13.3350 -13.3350
    -8.2809  -8.2809  -7.2056  -7.2056  -5.0744  -5.0744  -4.5635  -4.5635
    -3.7039  -3.7039  -3.4595  -3.4595  -2.2265  -2.2265  -2.1305  -2.1305
     0.3931   0.3931   0.9620   0.9620   1.0863   1.0863   1.8943   1.8943

     occupation numbers 
     1.0000   1.0000   1.0000   1.0000   1.0000   1.0000   1.0000   1.0000
     1.0000   1.0000   1.0000   1.0000   1.0000   1.0000   1.0000   1.0000
     1.0000   1.0000   1.0000   1.0000   1.0000   1.0000   1.0000   1.0000
     1.0000   1.0000   1.0000   1.0000   1.0000   1.0000   1.0000   1.0000
     1.0000   1.0000   1.0000   1.0000   1.0000   1.0000   1.0000   1.0000
     0.0000   0.0000   0.0000   0.0000   0.0000   0.0000   0.0000   0.0000

          k = 0.1250 0.3787 0.0000 ( 20069 PWs)   bands (ev):

   -22.5158 -22.5158 -22.5137 -22.5137 -22.5064 -22.5064 -22.5036 -22.5036
   -22.4791 -22.4791 -22.4688 -22.4688 -22.4461 -22.4461 -22.4402 -22.4402
   -22.4389 -22.4389 -22.4330 -22.4330 -14.0205 -14.0205 -13.4785 -13.4785
    -8.3080  -8.3080  -7.7226  -7.7226  -4.8491  -4.8491  -4.2339  -4.2339
    -3.8790  -3.8790  -3.4013  -3.4013  -2.2090  -2.2090  -2.1309  -2.1309
     0.1355   0.1355   0.2275   0.2275   1.5143   1.5143   1.5328   1.5328

     occupation numbers 
     1.0000   1.0000   1.0000   1.0000   1.0000   1.0000   1.0000   1.0000
     1.0000   1.0000   1.0000   1.0000   1.0000   1.0000   1.0000   1.0000
     1.0000   1.0000   1.0000   1.0000   1.0000   1.0000   1.0000   1.0000
     1.0000   1.0000   1.0000   1.0000   1.0000   1.0000   1.0000   1.0000
     1.0000   1.0000   1.0000   1.0000   1.0000   1.0000   1.0000   1.0000
     0.0000   0.0000   0.0000   0.0000   0.0000   0.0000   0.0000   0.0000

          k = 0.1250 0.3787-0.1058 ( 20090 PWs)   bands (ev):

   -22.5158 -22.5158 -22.5137 -22.5137 -22.5064 -22.5064 -22.5036 -22.5036
   -22.4791 -22.4791 -22.4688 -22.4688 -22.4461 -22.4461 -22.4402 -22.4402
   -22.4389 -22.4389 -22.4330 -22.4330 -14.0205 -14.0205 -13.4785 -13.4785
    -8.3080  -8.3080  -7.7226  -7.7226  -4.8491  -4.8491  -4.2339  -4.2339
    -3.8790  -3.8790  -3.4013  -3.4013  -2.2090  -2.2090  -2.1309  -2.1309
     0.1355   0.1355   0.2275   0.2275   1.5143   1.5143   1.5327   1.5327

     occupation numbers 
     1.0000   1.0000   1.0000   1.0000   1.0000   1.0000   1.0000   1.0000
     1.0000   1.0000   1.0000   1.0000   1.0000   1.0000   1.0000   1.0000
     1.0000   1.0000   1.0000   1.0000   1.0000   1.0000   1.0000   1.0000
     1.0000   1.0000   1.0000   1.0000   1.0000   1.0000   1.0000   1.0000
     1.0000   1.0000   1.0000   1.0000   1.0000   1.0000   1.0000   1.0000
     0.0000   0.0000   0.0000   0.0000   0.0000   0.0000   0.0000   0.0000

          k = 0.1250-0.5049 0.0000 ( 20088 PWs)   bands (ev):

   -22.5156 -22.5156 -22.5155 -22.5155 -22.5042 -22.5042 -22.5041 -22.5041
   -22.4735 -22.4735 -22.4734 -22.4734 -22.4434 -22.4434 -22.4433 -22.4433
   -22.4357 -22.4357 -22.4357 -22.4357 -13.7228 -13.7228 -13.7227 -13.7227
    -8.1267  -8.1267  -8.1266  -8.1266  -4.4152  -4.4152  -4.4152  -4.4152
    -3.7070  -3.7070  -3.7070  -3.7070  -2.1229  -2.1229  -2.1228  -2.1228
    -0.0422  -0.0422  -0.0421  -0.0421   1.6910   1.6910   1.6911   1.6911

     occupation numbers 
     1.0000   1.0000   1.0000   1.0000   1.0000   1.0000   1.0000   1.0000
     1.0000   1.0000   1.0000   1.0000   1.0000   1.0000   1.0000   1.0000
     1.0000   1.0000   1.0000   1.0000   1.0000   1.0000   1.0000   1.0000
     1.0000   1.0000   1.0000   1.0000   1.0000   1.0000   1.0000   1.0000
     1.0000   1.0000   1.0000   1.0000   1.0000   1.0000   1.0000   1.0000
     0.0000   0.0000   0.0000   0.0000   0.0000   0.0000   0.0000   0.0000

          k = 0.1250-0.5049-0.1058 ( 20092 PWs)   bands (ev):

   -22.5156 -22.5156 -22.5155 -22.5155 -22.5042 -22.5042 -22.5041 -22.5041
   -22.4735 -22.4735 -22.4734 -22.4734 -22.4434 -22.4434 -22.4433 -22.4433
   -22.4357 -22.4357 -22.4357 -22.4357 -13.7228 -13.7228 -13.7227 -13.7227
    -8.1267  -8.1267  -8.1266  -8.1266  -4.4152  -4.4152  -4.4152  -4.4152
    -3.7070  -3.7070  -3.7070  -3.7070  -2.1229  -2.1229  -2.1228  -2.1228
    -0.0422  -0.0422  -0.0421  -0.0421   1.6910   1.6910   1.6911   1.6911

     occupation numbers 
     1.0000   1.0000   1.0000   1.0000   1.0000   1.0000   1.0000   1.0000
     1.0000   1.0000   1.0000   1.0000   1.0000   1.0000   1.0000   1.0000
     1.0000   1.0000   1.0000   1.0000   1.0000   1.0000   1.0000   1.0000
     1.0000   1.0000   1.0000   1.0000   1.0000   1.0000   1.0000   1.0000
     1.0000   1.0000   1.0000   1.0000   1.0000   1.0000   1.0000   1.0000
     0.0000   0.0000   0.0000   0.0000   0.0000   0.0000   0.0000   0.0000

          k = 0.2500 0.0000 0.0000 ( 20006 PWs)   bands (ev):

   -22.5148 -22.5148 -22.5134 -22.5134 -22.5091 -22.5091 -22.5064 -22.5064
   -22.4846 -22.4846 -22.4635 -22.4635 -22.4463 -22.4463 -22.4447 -22.4447
   -22.4346 -22.4346 -22.4330 -22.4330 -14.3423 -14.3423 -13.3030 -13.3030
    -8.4847  -8.4847  -7.3049  -7.3049  -4.7135  -4.7135  -4.4078  -4.4078
    -3.9291  -3.9291  -3.0715  -3.0715  -2.3161  -2.3161  -2.1630  -2.1630
     0.7864   0.7864   0.9042   0.9042   1.5548   1.5548   1.8281   1.8281

     occupation numbers 
     1.0000   1.0000   1.0000   1.0000   1.0000   1.0000   1.0000   1.0000
     1.0000   1.0000   1.0000   1.0000   1.0000   1.0000   1.0000   1.0000
     1.0000   1.0000   1.0000   1.0000   1.0000   1.0000   1.0000   1.0000
     1.0000   1.0000   1.0000   1.0000   1.0000   1.0000   1.0000   1.0000
     1.0000   1.0000   1.0000   1.0000   1.0000   1.0000   1.0000   1.0000
     0.0000   0.0000   0.0000   0.0000   0.0000   0.0000   0.0000   0.0000

          k = 0.2500 0.0000-0.1058 ( 20018 PWs)   bands (ev):

   -22.5148 -22.5148 -22.5134 -22.5134 -22.5091 -22.5091 -22.5064 -22.5064
   -22.4846 -22.4846 -22.4635 -22.4635 -22.4463 -22.4463 -22.4447 -22.4447
   -22.4346 -22.4346 -22.4330 -22.4330 -14.3423 -14.3423 -13.3030 -13.3030
    -8.4847  -8.4847  -7.3049  -7.3049  -4.7135  -4.7135  -4.4078  -4.4078
    -3.9291  -3.9291  -3.0715  -3.0715  -2.3161  -2.3161  -2.1630  -2.1630
     0.7864   0.7864   0.9041   0.9041   1.5549   1.5549   1.8281   1.8281

     occupation numbers 
     1.0000   1.0000   1.0000   1.0000   1.0000   1.0000   1.0000   1.0000
     1.0000   1.0000   1.0000   1.0000   1.0000   1.0000   1.0000   1.0000
     1.0000   1.0000   1.0000   1.0000   1.0000   1.0000   1.0000   1.0000
     1.0000   1.0000   1.0000   1.0000   1.0000   1.0000   1.0000   1.0000
     1.0000   1.0000   1.0000   1.0000   1.0000   1.0000   1.0000   1.0000
     0.0000   0.0000   0.0000   0.0000   0.0000   0.0000   0.0000   0.0000

          k = 0.2500 0.1262 0.0000 ( 20073 PWs)   bands (ev):

   -22.5159 -22.5159 -22.5138 -22.5138 -22.5086 -22.5086 -22.5052 -22.5052
   -22.4834 -22.4834 -22.4642 -22.4642 -22.4475 -22.4475 -22.4426 -22.4426
   -22.4363 -22.4363 -22.4321 -22.4321 -14.2810 -14.2810 -13.3063 -13.3063
    -8.4379  -8.4379  -7.3383  -7.3383  -4.9774  -4.9774  -4.6650  -4.6650
    -3.4611  -3.4611  -3.4551  -3.4551  -2.3070  -2.3070  -2.0813  -2.0813
     0.6920   0.6920   0.9367   0.9367   1.3757   1.3757   1.9447   1.9447

     occupation numbers 
     1.0000   1.0000   1.0000   1.0000   1.0000   1.0000   1.0000   1.0000
     1.0000   1.0000   1.0000   1.0000   1.0000   1.0000   1.0000   1.0000
     1.0000   1.0000   1.0000   1.0000   1.0000   1.0000   1.0000   1.0000
     1.0000   1.0000   1.0000   1.0000   1.0000   1.0000   1.0000   1.0000
     1.0000   1.0000   1.0000   1.0000   1.0000   1.0000   1.0000   1.0000
     0.0000   0.0000   0.0000   0.0000   0.0000   0.0000   0.0000   0.0000

          k = 0.2500 0.1262-0.1058 ( 20048 PWs)   bands (ev):

   -22.5159 -22.5159 -22.5138 -22.5138 -22.5086 -22.5086 -22.5052 -22.5052
   -22.4834 -22.4834 -22.4642 -22.4642 -22.4475 -22.4475 -22.4426 -22.4426
   -22.4363 -22.4363 -22.4320 -22.4320 -14.2810 -14.2810 -13.3063 -13.3063
    -8.4379  -8.4379  -7.3383  -7.3383  -4.9774  -4.9774  -4.6650  -4.6650
    -3.4611  -3.4611  -3.4551  -3.4551  -2.3070  -2.3070  -2.0813  -2.0813
     0.6920   0.6920   0.9367   0.9367   1.3757   1.3757   1.9447   1.9447

     occupation numbers 
     1.0000   1.0000   1.0000   1.0000   1.0000   1.0000   1.0000   1.0000
     1.0000   1.0000   1.0000   1.0000   1.0000   1.0000   1.0000   1.0000
     1.0000   1.0000   1.0000   1.0000   1.0000   1.0000   1.0000   1.0000
     1.0000   1.0000   1.0000   1.0000   1.0000   1.0000   1.0000   1.0000
     1.0000   1.0000   1.0000   1.0000   1.0000   1.0000   1.0000   1.0000
     0.0000   0.0000   0.0000   0.0000   0.0000   0.0000   0.0000   0.0000

          k = 0.2500 0.2525 0.0000 ( 20091 PWs)   bands (ev):

   -22.5183 -22.5183 -22.5164 -22.5164 -22.5058 -22.5058 -22.5024 -22.5024
   -22.4804 -22.4804 -22.4664 -22.4664 -22.4478 -22.4478 -22.4396 -22.4396
   -22.4389 -22.4389 -22.4316 -22.4316 -14.1097 -14.1097 -13.3352 -13.3352
    -8.3228  -8.3228  -7.4710  -7.4710  -5.4924  -5.4924  -4.5430  -4.5430
    -3.9702  -3.9702  -3.2617  -3.2617  -2.6952  -2.6952  -1.9351  -1.9351
     0.4573   0.4573   1.0695   1.0695   1.4506   1.4506   2.3225   2.3225

     occupation numbers 
     1.0000   1.0000   1.0000   1.0000   1.0000   1.0000   1.0000   1.0000
     1.0000   1.0000   1.0000   1.0000   1.0000   1.0000   1.0000   1.0000
     1.0000   1.0000   1.0000   1.0000   1.0000   1.0000   1.0000   1.0000
     1.0000   1.0000   1.0000   1.0000   1.0000   1.0000   1.0000   1.0000
     1.0000   1.0000   1.0000   1.0000   1.0000   1.0000   1.0000   1.0000
     0.0000   0.0000   0.0000   0.0000   0.0000   0.0000   0.0000   0.0000

          k = 0.2500 0.2525-0.1058 ( 20086 PWs)   bands (ev):

   -22.5183 -22.5183 -22.5164 -22.5164 -22.5058 -22.5058 -22.5024 -22.5024
   -22.4803 -22.4803 -22.4664 -22.4664 -22.4478 -22.4478 -22.4396 -22.4396
   -22.4389 -22.4389 -22.4316 -22.4316 -14.1097 -14.1097 -13.3352 -13.3352
    -8.3228  -8.3228  -7.4710  -7.4710  -5.4924  -5.4924  -4.5430  -4.5430
    -3.9702  -3.9702  -3.2617  -3.2617  -2.6952  -2.6952  -1.9351  -1.9351
     0.4573   0.4573   1.0695   1.0695   1.4505   1.4505   2.3225   2.3225

     occupation numbers 
     1.0000   1.0000   1.0000   1.0000   1.0000   1.0000   1.0000   1.0000
     1.0000   1.0000   1.0000   1.0000   1.0000   1.0000   1.0000   1.0000
     1.0000   1.0000   1.0000   1.0000   1.0000   1.0000   1.0000   1.0000
     1.0000   1.0000   1.0000   1.0000   1.0000   1.0000   1.0000   1.0000
     1.0000   1.0000   1.0000   1.0000   1.0000   1.0000   1.0000   1.0000
     0.0000   0.0000   0.0000   0.0000   0.0000   0.0000   0.0000   0.0000

          k = 0.2500 0.3787 0.0000 ( 20124 PWs)   bands (ev):

   -22.5205 -22.5205 -22.5195 -22.5195 -22.5023 -22.5023 -22.5002 -22.5002
   -22.4764 -22.4764 -22.4693 -22.4693 -22.4465 -22.4465 -22.4416 -22.4416
   -22.4366 -22.4366 -22.4323 -22.4323 -13.8681 -13.8681 -13.4318 -13.4318
    -8.1787  -8.1787  -7.7179  -7.7179  -5.5742  -5.5742  -4.6525  -4.6525
    -4.1829  -4.1829  -3.4631  -3.4631  -2.9020  -2.9020  -2.1693  -2.1693
     0.4376   0.4376   1.3950   1.3950   1.8724   1.8724   2.2373   2.2373

     occupation numbers 
     1.0000   1.0000   1.0000   1.0000   1.0000   1.0000   1.0000   1.0000
     1.0000   1.0000   1.0000   1.0000   1.0000   1.0000   1.0000   1.0000
     1.0000   1.0000   1.0000   1.0000   1.0000   1.0000   1.0000   1.0000
     1.0000   1.0000   1.0000   1.0000   1.0000   1.0000   1.0000   1.0000
     1.0000   1.0000   1.0000   1.0000   1.0000   1.0000   1.0000   1.0000
     0.0000   0.0000   0.0000   0.0000   0.0000   0.0000   0.0000   0.0000

          k = 0.2500 0.3787-0.1058 ( 20094 PWs)   bands (ev):

   -22.5205 -22.5205 -22.5195 -22.5195 -22.5023 -22.5023 -22.5002 -22.5002
   -22.4764 -22.4764 -22.4693 -22.4693 -22.4465 -22.4465 -22.4416 -22.4416
   -22.4366 -22.4366 -22.4323 -22.4323 -13.8681 -13.8681 -13.4318 -13.4318
    -8.1787  -8.1787  -7.7179  -7.7179  -5.5742  -5.5742  -4.6525  -4.6525
    -4.1829  -4.1829  -3.4631  -3.4631  -2.9020  -2.9020  -2.1693  -2.1693
     0.4376   0.4376   1.3950   1.3950   1.8724   1.8724   2.2373   2.2373

     occupation numbers 
     1.0000   1.0000   1.0000   1.0000   1.0000   1.0000   1.0000   1.0000
     1.0000   1.0000   1.0000   1.0000   1.0000   1.0000   1.0000   1.0000
     1.0000   1.0000   1.0000   1.0000   1.0000   1.0000   1.0000   1.0000
     1.0000   1.0000   1.0000   1.0000   1.0000   1.0000   1.0000   1.0000
     1.0000   1.0000   1.0000   1.0000   1.0000   1.0000   1.0000   1.0000
     0.0000   0.0000   0.0000   0.0000   0.0000   0.0000   0.0000   0.0000

          k = 0.2500-0.5049 0.0000 ( 20090 PWs)   bands (ev):

   -22.5212 -22.5212 -22.5211 -22.5211 -22.5002 -22.5002 -22.5001 -22.5001
   -22.4727 -22.4727 -22.4726 -22.4726 -22.4442 -22.4442 -22.4442 -22.4442
   -22.4341 -22.4341 -22.4340 -22.4340 -13.6197 -13.6197 -13.6196 -13.6196
    -7.9835  -7.9835  -7.9834  -7.9834  -5.2187  -5.2187  -5.2186  -5.2186
    -3.8473  -3.8473  -3.8473  -3.8473  -2.6358  -2.6358  -2.6357  -2.6357
     0.9435   0.9435   0.9436   0.9436   2.2205   2.2205   2.2205   2.2205

     occupation numbers 
     1.0000   1.0000   1.0000   1.0000   1.0000   1.0000   1.0000   1.0000
     1.0000   1.0000   1.0000   1.0000   1.0000   1.0000   1.0000   1.0000
     1.0000   1.0000   1.0000   1.0000   1.0000   1.0000   1.0000   1.0000
     1.0000   1.0000   1.0000   1.0000   1.0000   1.0000   1.0000   1.0000
     1.0000   1.0000   1.0000   1.0000   1.0000   1.0000   1.0000   1.0000
     0.0000   0.0000   0.0000   0.0000   0.0000   0.0000   0.0000   0.0000

          k = 0.2500-0.5049-0.1058 ( 20132 PWs)   bands (ev):

   -22.5212 -22.5212 -22.5211 -22.5211 -22.5002 -22.5002 -22.5001 -22.5001
   -22.4727 -22.4727 -22.4726 -22.4726 -22.4442 -22.4442 -22.4442 -22.4442
   -22.4341 -22.4341 -22.4340 -22.4340 -13.6197 -13.6197 -13.6196 -13.6196
    -7.9835  -7.9835  -7.9834  -7.9834  -5.2187  -5.2187  -5.2186  -5.2186
    -3.8473  -3.8473  -3.8473  -3.8473  -2.6358  -2.6358  -2.6357  -2.6357
     0.9435   0.9435   0.9436   0.9436   2.2205   2.2205   2.2205   2.2205

     occupation numbers 
     1.0000   1.0000   1.0000   1.0000   1.0000   1.0000   1.0000   1.0000
     1.0000   1.0000   1.0000   1.0000   1.0000   1.0000   1.0000   1.0000
     1.0000   1.0000   1.0000   1.0000   1.0000   1.0000   1.0000   1.0000
     1.0000   1.0000   1.0000   1.0000   1.0000   1.0000   1.0000   1.0000
     1.0000   1.0000   1.0000   1.0000   1.0000   1.0000   1.0000   1.0000
     0.0000   0.0000   0.0000   0.0000   0.0000   0.0000   0.0000   0.0000

          k = 0.3750 0.0000 0.0000 ( 20056 PWs)   bands (ev):

   -22.5169 -22.5169 -22.5152 -22.5152 -22.5077 -22.5077 -22.5049 -22.5049
   -22.4776 -22.4776 -22.4666 -22.4666 -22.4443 -22.4443 -22.4411 -22.4411
   -22.4377 -22.4377 -22.4350 -22.4350 -14.0356 -14.0356 -13.4388 -13.4388
    -8.6676  -8.6676  -8.0126  -8.0126  -4.3880  -4.3880  -4.0900  -4.0900
    -3.5926  -3.5926  -3.1276  -3.1276  -2.2962  -2.2962  -1.8605  -1.8605
     0.0931   0.0931   1.1758   1.1758   1.2532   1.2532   1.4300   1.4300

     occupation numbers 
     1.0000   1.0000   1.0000   1.0000   1.0000   1.0000   1.0000   1.0000
     1.0000   1.0000   1.0000   1.0000   1.0000   1.0000   1.0000   1.0000
     1.0000   1.0000   1.0000   1.0000   1.0000   1.0000   1.0000   1.0000
     1.0000   1.0000   1.0000   1.0000   1.0000   1.0000   1.0000   1.0000
     1.0000   1.0000   1.0000   1.0000   1.0000   1.0000   1.0000   1.0000
     0.0000   0.0000   0.0000   0.0000   0.0000   0.0000   0.0000   0.0000

          k = 0.3750 0.0000-0.1058 ( 20050 PWs)   bands (ev):

   -22.5169 -22.5169 -22.5151 -22.5151 -22.5077 -22.5077 -22.5049 -22.5049
   -22.4776 -22.4776 -22.4666 -22.4666 -22.4443 -22.4443 -22.4411 -22.4411
   -22.4377 -22.4377 -22.4350 -22.4350 -14.0356 -14.0356 -13.4388 -13.4388
    -8.6676  -8.6676  -8.0126  -8.0126  -4.3880  -4.3880  -4.0900  -4.0900
    -3.5926  -3.5926  -3.1276  -3.1276  -2.2962  -2.2962  -1.8605  -1.8605
     0.0931   0.0931   1.1758   1.1758   1.2532   1.2532   1.4299   1.4299

     occupation numbers 
     1.0000   1.0000   1.0000   1.0000   1.0000   1.0000   1.0000   1.0000
     1.0000   1.0000   1.0000   1.0000   1.0000   1.0000   1.0000   1.0000
     1.0000   1.0000   1.0000   1.0000   1.0000   1.0000   1.0000   1.0000
     1.0000   1.0000   1.0000   1.0000   1.0000   1.0000   1.0000   1.0000
     1.0000   1.0000   1.0000   1.0000   1.0000   1.0000   1.0000   1.0000
     0.0000   0.0000   0.0000   0.0000   0.0000   0.0000   0.0000   0.0000

          k = 0.3750 0.1262 0.0000 ( 20061 PWs)   bands (ev):

   -22.5183 -22.5183 -22.5169 -22.5169 -22.5060 -22.5060 -22.5035 -22.5035
   -22.4770 -22.4770 -22.4671 -22.4671 -22.4454 -22.4454 -22.4394 -22.4394
   -22.4392 -22.4392 -22.4338 -22.4338 -13.9851 -13.9851 -13.4259 -13.4259
    -8.5826  -8.5826  -7.9701  -7.9701  -4.6913  -4.6913  -4.3949  -4.3949
    -3.4991  -3.4991  -3.4224  -3.4224  -2.3123  -2.3123  -2.0715  -2.0715
     0.5792   0.5792   0.6500   0.6500   1.5927   1.5927   1.6066   1.6066

     occupation numbers 
     1.0000   1.0000   1.0000   1.0000   1.0000   1.0000   1.0000   1.0000
     1.0000   1.0000   1.0000   1.0000   1.0000   1.0000   1.0000   1.0000
     1.0000   1.0000   1.0000   1.0000   1.0000   1.0000   1.0000   1.0000
     1.0000   1.0000   1.0000   1.0000   1.0000   1.0000   1.0000   1.0000
     1.0000   1.0000   1.0000   1.0000   1.0000   1.0000   1.0000   1.0000
     0.0000   0.0000   0.0000   0.0000   0.0000   0.0000   0.0000   0.0000

          k = 0.3750 0.1262-0.1058 ( 20076 PWs)   bands (ev):

   -22.5183 -22.5183 -22.5169 -22.5169 -22.5060 -22.5060 -22.5035 -22.5035
   -22.4770 -22.4770 -22.4671 -22.4671 -22.4455 -22.4455 -22.4394 -22.4394
   -22.4392 -22.4392 -22.4338 -22.4338 -13.9851 -13.9851 -13.4259 -13.4259
    -8.5826  -8.5826  -7.9701  -7.9701  -4.6913  -4.6913  -4.3949  -4.3949
    -3.4991  -3.4991  -3.4224  -3.4224  -2.3123  -2.3123  -2.0715  -2.0715
     0.5792   0.5792   0.6500   0.6500   1.5926   1.5926   1.6066   1.6066

     occupation numbers 
     1.0000   1.0000   1.0000   1.0000   1.0000   1.0000   1.0000   1.0000
     1.0000   1.0000   1.0000   1.0000   1.0000   1.0000   1.0000   1.0000
     1.0000   1.0000   1.0000   1.0000   1.0000   1.0000   1.0000   1.0000
     1.0000   1.0000   1.0000   1.0000   1.0000   1.0000   1.0000   1.0000
     1.0000   1.0000   1.0000   1.0000   1.0000   1.0000   1.0000   1.0000
     0.0000   0.0000   0.0000   0.0000   0.0000   0.0000   0.0000   0.0000

          k = 0.3750 0.2525 0.0000 ( 20105 PWs)   bands (ev):

   -22.5217 -22.5217 -22.5208 -22.5208 -22.5022 -22.5022 -22.5002 -22.5002
   -22.4757 -22.4757 -22.4686 -22.4686 -22.4463 -22.4463 -22.4413 -22.4413
   -22.4366 -22.4366 -22.4324 -22.4324 -13.8485 -13.8485 -13.4049 -13.4049
    -8.3509  -8.3509  -7.8747  -7.8747  -5.4306  -5.4306  -4.4957  -4.4957
    -4.1843  -4.1843  -3.5010  -3.5010  -2.9549  -2.9549  -2.1646  -2.1646
     0.5904   0.5904   1.7645   1.7645   1.9648   1.9648   2.1291   2.1291

     occupation numbers 
     1.0000   1.0000   1.0000   1.0000   1.0000   1.0000   1.0000   1.0000
     1.0000   1.0000   1.0000   1.0000   1.0000   1.0000   1.0000   1.0000
     1.0000   1.0000   1.0000   1.0000   1.0000   1.0000   1.0000   1.0000
     1.0000   1.0000   1.0000   1.0000   1.0000   1.0000   1.0000   1.0000
     1.0000   1.0000   1.0000   1.0000   1.0000   1.0000   1.0000   1.0000
     0.0000   0.0000   0.0000   0.0000   0.0000   0.0000   0.0000   0.0000

          k = 0.3750 0.2525-0.1058 ( 20098 PWs)   bands (ev):

   -22.5217 -22.5217 -22.5208 -22.5208 -22.5022 -22.5022 -22.5002 -22.5002
   -22.4757 -22.4757 -22.4686 -22.4686 -22.4463 -22.4463 -22.4413 -22.4413
   -22.4366 -22.4366 -22.4324 -22.4324 -13.8485 -13.8485 -13.4049 -13.4049
    -8.3509  -8.3509  -7.8747  -7.8747  -5.4306  -5.4306  -4.4957  -4.4957
    -4.1843  -4.1843  -3.5010  -3.5010  -2.9549  -2.9549  -2.1646  -2.1646
     0.5904   0.5904   1.7645   1.7645   1.9648   1.9648   2.1291   2.1291

     occupation numbers 
     1.0000   1.0000   1.0000   1.0000   1.0000   1.0000   1.0000   1.0000
     1.0000   1.0000   1.0000   1.0000   1.0000   1.0000   1.0000   1.0000
     1.0000   1.0000   1.0000   1.0000   1.0000   1.0000   1.0000   1.0000
     1.0000   1.0000   1.0000   1.0000   1.0000   1.0000   1.0000   1.0000
     1.0000   1.0000   1.0000   1.0000   1.0000   1.0000   1.0000   1.0000
     0.0000   0.0000   0.0000   0.0000   0.0000   0.0000   0.0000   0.0000

          k = 0.3750 0.3787 0.0000 ( 20113 PWs)   bands (ev):

   -22.5250 -22.5250 -22.5246 -22.5246 -22.4985 -22.4985 -22.4973 -22.4973
   -22.4740 -22.4740 -22.4705 -22.4705 -22.4458 -22.4458 -22.4429 -22.4429
   -22.4343 -22.4343 -22.4320 -22.4320 -13.6692 -13.6692 -13.4197 -13.4197
    -8.0606  -8.0606  -7.8111  -7.8111  -5.8151  -5.8151  -5.0401  -5.0401
    -4.5093  -4.5093  -3.8630  -3.8630  -3.0943  -3.0943  -2.5893  -2.5893
     1.2136   1.2136   2.3265   2.3265   2.3537   2.3537   2.5358   2.5358

     occupation numbers 
     1.0000   1.0000   1.0000   1.0000   1.0000   1.0000   1.0000   1.0000
     1.0000   1.0000   1.0000   1.0000   1.0000   1.0000   1.0000   1.0000
     1.0000   1.0000   1.0000   1.0000   1.0000   1.0000   1.0000   1.0000
     1.0000   1.0000   1.0000   1.0000   1.0000   1.0000   1.0000   1.0000
     1.0000   1.0000   1.0000   1.0000   1.0000   1.0000   1.0000   1.0000
     0.0000   0.0000   0.0000   0.0000   0.0000   0.0000   0.0000   0.0000

          k = 0.3750 0.3787-0.1058 ( 20114 PWs)   bands (ev):

   -22.5250 -22.5250 -22.5246 -22.5246 -22.4985 -22.4985 -22.4973 -22.4973
   -22.4740 -22.4740 -22.4705 -22.4705 -22.4458 -22.4458 -22.4429 -22.4429
   -22.4343 -22.4343 -22.4320 -22.4320 -13.6692 -13.6692 -13.4197 -13.4197
    -8.0606  -8.0606  -7.8111  -7.8111  -5.8151  -5.8151  -5.0401  -5.0401
    -4.5093  -4.5093  -3.8630  -3.8630  -3.0943  -3.0943  -2.5893  -2.5893
     1.2136   1.2136   2.3265   2.3265   2.3537   2.3537   2.5358   2.5358

     occupation numbers 
     1.0000   1.0000   1.0000   1.0000   1.0000   1.0000   1.0000   1.0000
     1.0000   1.0000   1.0000   1.0000   1.0000   1.0000   1.0000   1.0000
     1.0000   1.0000   1.0000   1.0000   1.0000   1.0000   1.0000   1.0000
     1.0000   1.0000   1.0000   1.0000   1.0000   1.0000   1.0000   1.0000
     1.0000   1.0000   1.0000   1.0000   1.0000   1.0000   1.0000   1.0000
     0.0000   0.0000   0.0000   0.0000   0.0000   0.0000   0.0000   0.0000

          k = 0.3750-0.5049 0.0000 ( 20108 PWs)   bands (ev):

   -22.5263 -22.5263 -22.5261 -22.5261 -22.4967 -22.4967 -22.4965 -22.4965
   -22.4723 -22.4723 -22.4723 -22.4723 -22.4445 -22.4445 -22.4444 -22.4444
   -22.4327 -22.4327 -22.4327 -22.4327 -13.5094 -13.5094 -13.5092 -13.5092
    -7.8601  -7.8601  -7.8601  -7.8601  -5.6565  -5.6565  -5.6565  -5.6565
    -4.3091  -4.3091  -4.3091  -4.3091  -2.9083  -2.9083  -2.9083  -2.9083
     1.8980   1.8980   1.8981   1.8981   2.5206   2.5206   2.5207   2.5207

     occupation numbers 
     1.0000   1.0000   1.0000   1.0000   1.0000   1.0000   1.0000   1.0000
     1.0000   1.0000   1.0000   1.0000   1.0000   1.0000   1.0000   1.0000
     1.0000   1.0000   1.0000   1.0000   1.0000   1.0000   1.0000   1.0000
     1.0000   1.0000   1.0000   1.0000   1.0000   1.0000   1.0000   1.0000
     1.0000   1.0000   1.0000   1.0000   1.0000   1.0000   1.0000   1.0000
     0.0000   0.0000   0.0000   0.0000   0.0000   0.0000   0.0000   0.0000

          k = 0.3750-0.5049-0.1058 ( 20120 PWs)   bands (ev):

   -22.5263 -22.5263 -22.5262 -22.5262 -22.4967 -22.4967 -22.4965 -22.4965
   -22.4723 -22.4723 -22.4723 -22.4723 -22.4445 -22.4445 -22.4444 -22.4444
   -22.4327 -22.4327 -22.4327 -22.4327 -13.5094 -13.5094 -13.5092 -13.5092
    -7.8601  -7.8601  -7.8601  -7.8601  -5.6565  -5.6565  -5.6565  -5.6565
    -4.3091  -4.3091  -4.3091  -4.3091  -2.9083  -2.9083  -2.9083  -2.9083
     1.8980   1.8980   1.8981   1.8981   2.5206   2.5206   2.5207   2.5207

     occupation numbers 
     1.0000   1.0000   1.0000   1.0000   1.0000   1.0000   1.0000   1.0000
     1.0000   1.0000   1.0000   1.0000   1.0000   1.0000   1.0000   1.0000
     1.0000   1.0000   1.0000   1.0000   1.0000   1.0000   1.0000   1.0000
     1.0000   1.0000   1.0000   1.0000   1.0000   1.0000   1.0000   1.0000
     1.0000   1.0000   1.0000   1.0000   1.0000   1.0000   1.0000   1.0000
     0.0000   0.0000   0.0000   0.0000   0.0000   0.0000   0.0000   0.0000

          k =-0.5000 0.0000 0.0000 ( 20088 PWs)   bands (ev):

   -22.5173 -22.5173 -22.5171 -22.5171 -22.5054 -22.5054 -22.5053 -22.5053
   -22.4714 -22.4714 -22.4713 -22.4713 -22.4414 -22.4414 -22.4413 -22.4413
   -22.4376 -22.4376 -22.4375 -22.4375 -13.7029 -13.7029 -13.7028 -13.7028
    -8.5073  -8.5073  -8.5072  -8.5072  -4.0737  -4.0737  -4.0737  -4.0737
    -3.3463  -3.3463  -3.3462  -3.3462  -2.0402  -2.0402  -2.0401  -2.0401
     0.3642   0.3642   0.3643   0.3643   1.3474   1.3474   1.3475   1.3475

     occupation numbers 
     1.0000   1.0000   1.0000   1.0000   1.0000   1.0000   1.0000   1.0000
     1.0000   1.0000   1.0000   1.0000   1.0000   1.0000   1.0000   1.0000
     1.0000   1.0000   1.0000   1.0000   1.0000   1.0000   1.0000   1.0000
     1.0000   1.0000   1.0000   1.0000   1.0000   1.0000   1.0000   1.0000
     1.0000   1.0000   1.0000   1.0000   1.0000   1.0000   1.0000   1.0000
     0.0000   0.0000   0.0000   0.0000   0.0000   0.0000   0.0000   0.0000

          k =-0.5000 0.0000-0.1058 ( 20036 PWs)   bands (ev):

   -22.5172 -22.5172 -22.5171 -22.5171 -22.5054 -22.5054 -22.5053 -22.5053
   -22.4714 -22.4714 -22.4713 -22.4713 -22.4414 -22.4414 -22.4413 -22.4413
   -22.4376 -22.4376 -22.4375 -22.4375 -13.7029 -13.7029 -13.7028 -13.7028
    -8.5073  -8.5073  -8.5072  -8.5072  -4.0737  -4.0737  -4.0737  -4.0737
    -3.3463  -3.3463  -3.3462  -3.3462  -2.0402  -2.0402  -2.0401  -2.0401
     0.3642   0.3642   0.3643   0.3643   1.3474   1.3474   1.3475   1.3475

     occupation numbers 
     1.0000   1.0000   1.0000   1.0000   1.0000   1.0000   1.0000   1.0000
     1.0000   1.0000   1.0000   1.0000   1.0000   1.0000   1.0000   1.0000
     1.0000   1.0000   1.0000   1.0000   1.0000   1.0000   1.0000   1.0000
     1.0000   1.0000   1.0000   1.0000   1.0000   1.0000   1.0000   1.0000
     1.0000   1.0000   1.0000   1.0000   1.0000   1.0000   1.0000   1.0000
     0.0000   0.0000   0.0000   0.0000   0.0000   0.0000   0.0000   0.0000

          k =-0.5000 0.1262 0.0000 ( 20100 PWs)   bands (ev):

   -22.5190 -22.5190 -22.5189 -22.5189 -22.5038 -22.5038 -22.5037 -22.5037
   -22.4715 -22.4715 -22.4714 -22.4714 -22.4426 -22.4426 -22.4425 -22.4425
   -22.4362 -22.4362 -22.4361 -22.4361 -13.6696 -13.6696 -13.6695 -13.6695
    -8.4287  -8.4287  -8.4286  -8.4286  -4.3233  -4.3233  -4.3232  -4.3232
    -3.6184  -3.6184  -3.6183  -3.6183  -2.1459  -2.1459  -2.1458  -2.1458
     0.4448   0.4448   0.4448   0.4448   1.8976   1.8976   1.8976   1.8976

     occupation numbers 
     1.0000   1.0000   1.0000   1.0000   1.0000   1.0000   1.0000   1.0000
     1.0000   1.0000   1.0000   1.0000   1.0000   1.0000   1.0000   1.0000
     1.0000   1.0000   1.0000   1.0000   1.0000   1.0000   1.0000   1.0000
     1.0000   1.0000   1.0000   1.0000   1.0000   1.0000   1.0000   1.0000
     1.0000   1.0000   1.0000   1.0000   1.0000   1.0000   1.0000   1.0000
     0.0000   0.0000   0.0000   0.0000   0.0000   0.0000   0.0000   0.0000

          k =-0.5000 0.1262-0.1058 ( 20108 PWs)   bands (ev):

   -22.5190 -22.5190 -22.5189 -22.5189 -22.5038 -22.5038 -22.5037 -22.5037
   -22.4715 -22.4715 -22.4714 -22.4714 -22.4426 -22.4426 -22.4425 -22.4425
   -22.4362 -22.4362 -22.4361 -22.4361 -13.6696 -13.6696 -13.6695 -13.6695
    -8.4287  -8.4287  -8.4286  -8.4286  -4.3233  -4.3233  -4.3232  -4.3232
    -3.6184  -3.6184  -3.6183  -3.6183  -2.1459  -2.1459  -2.1458  -2.1458
     0.4448   0.4448   0.4448   0.4448   1.8976   1.8976   1.8976   1.8976

     occupation numbers 
     1.0000   1.0000   1.0000   1.0000   1.0000   1.0000   1.0000   1.0000
     1.0000   1.0000   1.0000   1.0000   1.0000   1.0000   1.0000   1.0000
     1.0000   1.0000   1.0000   1.0000   1.0000   1.0000   1.0000   1.0000
     1.0000   1.0000   1.0000   1.0000   1.0000   1.0000   1.0000   1.0000
     1.0000   1.0000   1.0000   1.0000   1.0000   1.0000   1.0000   1.0000
     0.0000   0.0000   0.0000   0.0000   0.0000   0.0000   0.0000   0.0000

          k =-0.5000 0.2525 0.0000 ( 20086 PWs)   bands (ev):

   -22.5229 -22.5229 -22.5228 -22.5228 -22.5001 -22.5001 -22.4999 -22.4999
   -22.4718 -22.4718 -22.4717 -22.4717 -22.4439 -22.4439 -22.4439 -22.4439
   -22.4341 -22.4341 -22.4341 -22.4341 -13.5863 -13.5863 -13.5862 -13.5862
    -8.2157  -8.2157  -8.2156  -8.2156  -4.9868  -4.9868  -4.9867  -4.9867
    -3.9144  -3.9144  -3.9144  -3.9144  -2.6469  -2.6469  -2.6468  -2.6468
     1.1730   1.1730   1.1730   1.1730   2.4045   2.4045   2.4045   2.4045

     occupation numbers 
     1.0000   1.0000   1.0000   1.0000   1.0000   1.0000   1.0000   1.0000
     1.0000   1.0000   1.0000   1.0000   1.0000   1.0000   1.0000   1.0000
     1.0000   1.0000   1.0000   1.0000   1.0000   1.0000   1.0000   1.0000
     1.0000   1.0000   1.0000   1.0000   1.0000   1.0000   1.0000   1.0000
     1.0000   1.0000   1.0000   1.0000   1.0000   1.0000   1.0000   1.0000
     0.0000   0.0000   0.0000   0.0000   0.0000   0.0000   0.0000   0.0000

          k =-0.5000 0.2525-0.1058 ( 20112 PWs)   bands (ev):

   -22.5229 -22.5229 -22.5228 -22.5228 -22.5001 -22.5001 -22.4999 -22.4999
   -22.4718 -22.4718 -22.4717 -22.4717 -22.4439 -22.4439 -22.4439 -22.4439
   -22.4341 -22.4341 -22.4341 -22.4341 -13.5863 -13.5863 -13.5862 -13.5862
    -8.2157  -8.2157  -8.2156  -8.2156  -4.9868  -4.9868  -4.9867  -4.9867
    -3.9144  -3.9144  -3.9144  -3.9144  -2.6469  -2.6469  -2.6468  -2.6468
     1.1730   1.1730   1.1730   1.1730   2.4045   2.4045   2.4045   2.4045

     occupation numbers 
     1.0000   1.0000   1.0000   1.0000   1.0000   1.0000   1.0000   1.0000
     1.0000   1.0000   1.0000   1.0000   1.0000   1.0000   1.0000   1.0000
     1.0000   1.0000   1.0000   1.0000   1.0000   1.0000   1.0000   1.0000
     1.0000   1.0000   1.0000   1.0000   1.0000   1.0000   1.0000   1.0000
     1.0000   1.0000   1.0000   1.0000   1.0000   1.0000   1.0000   1.0000
     0.0000   0.0000   0.0000   0.0000   0.0000   0.0000   0.0000   0.0000

          k =-0.5000 0.3787 0.0000 ( 20048 PWs)   bands (ev):

   -22.5267 -22.5267 -22.5266 -22.5266 -22.4966 -22.4966 -22.4965 -22.4965
   -22.4722 -22.4722 -22.4721 -22.4721 -22.4443 -22.4443 -22.4443 -22.4443
   -22.4327 -22.4327 -22.4327 -22.4327 -13.4989 -13.4989 -13.4988 -13.4988
    -7.9556  -7.9556  -7.9555  -7.9555  -5.5306  -5.5306  -5.5306  -5.5306
    -4.3645  -4.3645  -4.3644  -4.3644  -2.9029  -2.9029  -2.9028  -2.9028
     1.8668   1.8668   1.8668   1.8668   2.6999   2.6999   2.6999   2.6999

     occupation numbers 
     1.0000   1.0000   1.0000   1.0000   1.0000   1.0000   1.0000   1.0000
     1.0000   1.0000   1.0000   1.0000   1.0000   1.0000   1.0000   1.0000
     1.0000   1.0000   1.0000   1.0000   1.0000   1.0000   1.0000   1.0000
     1.0000   1.0000   1.0000   1.0000   1.0000   1.0000   1.0000   1.0000
     1.0000   1.0000   1.0000   1.0000   1.0000   1.0000   1.0000   1.0000
     0.0000   0.0000   0.0000   0.0000   0.0000   0.0000   0.0000   0.0000

          k =-0.5000 0.3787-0.1058 ( 20092 PWs)   bands (ev):

   -22.5267 -22.5267 -22.5266 -22.5266 -22.4966 -22.4966 -22.4965 -22.4965
   -22.4722 -22.4722 -22.4721 -22.4721 -22.4443 -22.4443 -22.4443 -22.4443
   -22.4327 -22.4327 -22.4327 -22.4327 -13.4989 -13.4989 -13.4988 -13.4988
    -7.9556  -7.9556  -7.9555  -7.9555  -5.5306  -5.5306  -5.5306  -5.5306
    -4.3645  -4.3645  -4.3644  -4.3644  -2.9029  -2.9029  -2.9028  -2.9028
     1.8668   1.8668   1.8668   1.8668   2.6999   2.6999   2.6999   2.6999

     occupation numbers 
     1.0000   1.0000   1.0000   1.0000   1.0000   1.0000   1.0000   1.0000
     1.0000   1.0000   1.0000   1.0000   1.0000   1.0000   1.0000   1.0000
     1.0000   1.0000   1.0000   1.0000   1.0000   1.0000   1.0000   1.0000
     1.0000   1.0000   1.0000   1.0000   1.0000   1.0000   1.0000   1.0000
     1.0000   1.0000   1.0000   1.0000   1.0000   1.0000   1.0000   1.0000
     0.0000   0.0000   0.0000   0.0000   0.0000   0.0000   0.0000   0.0000

          k =-0.5000-0.5049 0.0000 ( 20148 PWs)   bands (ev):

   -22.5283 -22.5283 -22.5282 -22.5282 -22.4952 -22.4952 -22.4951 -22.4951
   -22.4723 -22.4723 -22.4723 -22.4723 -22.4444 -22.4444 -22.4444 -22.4444
   -22.4322 -22.4322 -22.4322 -22.4322 -13.4613 -13.4613 -13.4611 -13.4611
    -7.8269  -7.8269  -7.8268  -7.8268  -5.7238  -5.7238  -5.7238  -5.7238
    -4.6172  -4.6172  -4.6171  -4.6171  -2.9399  -2.9399  -2.9399  -2.9399
     2.1516   2.1516   2.1517   2.1517   2.7346   2.7346   2.7346   2.7346

     occupation numbers 
     1.0000   1.0000   1.0000   1.0000   1.0000   1.0000   1.0000   1.0000
     1.0000   1.0000   1.0000   1.0000   1.0000   1.0000   1.0000   1.0000
     1.0000   1.0000   1.0000   1.0000   1.0000   1.0000   1.0000   1.0000
     1.0000   1.0000   1.0000   1.0000   1.0000   1.0000   1.0000   1.0000
     1.0000   1.0000   1.0000   1.0000   1.0000   1.0000   1.0000   1.0000
     0.0000   0.0000   0.0000   0.0000   0.0000   0.0000   0.0000   0.0000

          k =-0.5000-0.5049-0.1058 ( 20120 PWs)   bands (ev):

   -22.5283 -22.5283 -22.5282 -22.5282 -22.4952 -22.4952 -22.4951 -22.4951
   -22.4723 -22.4723 -22.4723 -22.4723 -22.4444 -22.4444 -22.4444 -22.4444
   -22.4322 -22.4322 -22.4322 -22.4322 -13.4613 -13.4613 -13.4611 -13.4611
    -7.8269  -7.8269  -7.8268  -7.8268  -5.7238  -5.7238  -5.7238  -5.7238
    -4.6172  -4.6172  -4.6171  -4.6171  -2.9399  -2.9399  -2.9399  -2.9399
     2.1516   2.1516   2.1517   2.1517   2.7346   2.7346   2.7346   2.7346

     occupation numbers 
     1.0000   1.0000   1.0000   1.0000   1.0000   1.0000   1.0000   1.0000
     1.0000   1.0000   1.0000   1.0000   1.0000   1.0000   1.0000   1.0000
     1.0000   1.0000   1.0000   1.0000   1.0000   1.0000   1.0000   1.0000
     1.0000   1.0000   1.0000   1.0000   1.0000   1.0000   1.0000   1.0000
     1.0000   1.0000   1.0000   1.0000   1.0000   1.0000   1.0000   1.0000
     0.0000   0.0000   0.0000   0.0000   0.0000   0.0000   0.0000   0.0000

     the Fermi energy is    -0.9705 ev
     (compare with:    -0.9704 eV, computed in scf)

     Writing output data file ./SnS.save/
 
     init_run     :      1.02s CPU      1.20s WALL (       1 calls)
     electrons    :    226.01s CPU    229.74s WALL (       1 calls)

     Called by init_run:
     wfcinit      :      0.00s CPU      0.00s WALL (       1 calls)
     wfcinit:atom :      0.05s CPU      0.05s WALL (      50 calls)
     wfcinit:wfcr :      4.28s CPU      4.37s WALL (      50 calls)
     potinit      :      0.06s CPU      0.09s WALL (       1 calls)
     hinit0       :      0.61s CPU      0.63s WALL (       1 calls)

     Called by electrons:
     c_bands      :    226.01s CPU    229.73s WALL (       1 calls)
     v_of_rho     :      0.04s CPU      0.05s WALL (       1 calls)
     v_h          :      0.00s CPU      0.00s WALL (       1 calls)
     v_xc         :      0.04s CPU      0.05s WALL (       1 calls)
     newd         :      0.21s CPU      0.33s WALL (       1 calls)

     Called by c_bands:
     init_us_2    :      0.03s CPU      0.04s WALL (      50 calls)
     cegterg      :    219.53s CPU    223.01s WALL (     203 calls)

     Called by sum_band:

     Called by *egterg:
     cdiaghg      :      8.17s CPU      8.18s WALL (    3650 calls)
     cegterg:over :     18.43s CPU     18.98s WALL (    3600 calls)
     cegterg:upda :      9.43s CPU      9.44s WALL (    3600 calls)
     cegterg:last :     22.66s CPU     22.67s WALL (    2149 calls)
     h_psi        :    149.43s CPU    151.99s WALL (    3853 calls)
     s_psi        :      5.69s CPU      5.71s WALL (    3853 calls)
     g_psi        :      1.62s CPU      1.62s WALL (    3600 calls)

     Called by h_psi:
     h_psi:calbec :      6.67s CPU      6.99s WALL (    3853 calls)
     vloc_psi     :    136.14s CPU    138.35s WALL (    3853 calls)
     add_vuspsi   :      5.86s CPU      5.88s WALL (    3853 calls)

     General routines
     calbec       :      6.66s CPU      6.98s WALL (    3853 calls)
     fft          :      0.06s CPU      0.08s WALL (      19 calls)
     ffts         :      0.00s CPU      0.00s WALL (       4 calls)
     fftw         :    110.57s CPU    112.40s WALL (  435428 calls)
     interpolate  :      0.01s CPU      0.01s WALL (       4 calls)
     davcio       :      0.01s CPU      0.12s WALL (     100 calls)
 
     Parallel routines
 
     PWSCF        :   3m49.50s CPU   4m19.73s WALL

 
   This run was terminated on:  13:11:15  19Mar2023            

=------------------------------------------------------------------------------=
   JOB DONE.
=------------------------------------------------------------------------------=
