
     Program PWSCF v.6.8 starts on 19Mar2023 at 11:13:40 

     This program is part of the open-source Quantum ESPRESSO suite
     for quantum simulation of materials; please cite
         "P. Giannozzi et al., J. Phys.:Condens. Matter 21 395502 (2009);
         "P. Giannozzi et al., J. Phys.:Condens. Matter 29 465901 (2017);
         "P. Giannozzi et al., J. Chem. Phys. 152 154105 (2020);
          URL http://www.quantum-espresso.org", 
     in publications or presentations arising from this work. More details at
     http://www.quantum-espresso.org/quote

     Parallel version (MPI), running on    12 processors

     MPI processes distributed on     1 nodes
     R & G space division:  proc/nbgrp/npool/nimage =      12
     201857 MiB available memory on the printing compute node when the environment starts
 
     Waiting for input...
     Reading input from standard input

     Current dimensions of program PWSCF are:
     Max number of different atomic species (ntypx) = 10
     Max number of k-points (npk) =  40000
     Max angular momentum in pseudopotentials (lmaxx) =  4

     Atomic positions and unit cell read from directory:
     ./SnS.save/
     Atomic positions from file used, from input discarded
 
     Message from routine setup:
     At least one non s.o. pseudo
     Message from routine setup:
     using ibrav=0 with symmetry is DISCOURAGED, use correct ibrav instead

     Subspace diagonalization in iterative solution of the eigenvalue problem:
     a serial algorithm will be used

 
     Parallelization info
     --------------------
     sticks:   dense  smooth     PW     G-vecs:    dense   smooth      PW
     Min         198      98     28                35698    12602    1946
     Max         199      99     29                35715    12619    1959
     Sum        2377    1181    345               428421   151291   23395
 
     Using Slab Decomposition
 


     bravais-lattice index     =            0
     lattice parameter (alat)  =       7.7124  a.u.
     unit-cell volume          =    2412.7375 (a.u.)^3
     number of atoms/cell      =            4
     number of atomic types    =            2
     number of electrons       =        40.00
     number of Kohn-Sham states=           48
     kinetic-energy cutoff     =      60.0000  Ry
     charge density cutoff     =     480.0000  Ry
     Exchange-correlation= SLA  PW   PSX  PSC
                           (   1   4  10   8   0   0   0)
     Non magnetic calculation with spin-orbit


     celldm(1)=   7.712396  celldm(2)=   0.000000  celldm(3)=   0.000000
     celldm(4)=   0.000000  celldm(5)=   0.000000  celldm(6)=   0.000000

     crystal axes: (cart. coord. in units of alat)
               a(1) = (   1.000000   0.000000   0.000000 )  
               a(2) = (   0.000000   1.049644   0.000000 )  
               a(3) = (   0.000000   0.000000   5.010722 )  

     reciprocal axes: (cart. coord. in units 2 pi/alat)
               b(1) = (  1.000000  0.000000  0.000000 )  
               b(2) = (  0.000000  0.952704  0.000000 )  
               b(3) = (  0.000000  0.000000  0.199572 )  


     PseudoPot. # 1 for S  read from file:
     ./s_pbesol_v1.4.uspp.F.UPF
     MD5 check sum: 0ccfa86ec6eb59065d10aaae963ef2a7
     Pseudo is Ultrasoft + core correction, Zval =  6.0
     Generated by new atomic code, or converted to UPF format
     Using radial grid of  907 points,  6 beta functions with: 
                l(1) =   0
                l(2) =   0
                l(3) =   1
                l(4) =   1
                l(5) =   2
                l(6) =   2
     Q(r) pseudized with  8 coefficients,  rinner =    1.300   1.300   1.300
                                                       1.300   1.300

     PseudoPot. # 2 for Sn read from file:
     ./sn_pbesol_v1.4.uspp.F.UPF
     MD5 check sum: 463fec1d5456f1e96ec1bfcad4b7b038
     Pseudo is Ultrasoft + core correction, Zval = 14.0
     Generated by new atomic code, or converted to UPF format
     Using radial grid of  891 points,  6 beta functions with: 
                l(1) =   0
                l(2) =   0
                l(3) =   1
                l(4) =   1
                l(5) =   2
                l(6) =   2
     Q(r) pseudized with  8 coefficients,  rinner =    1.350   1.350   1.350
                                                       1.350   1.350

     atomic species   valence    mass     pseudopotential
        S              6.00    32.06500     S ( 1.00)
        Sn            14.00   118.71000     Sn( 1.00)

      2 Sym. Ops. (no inversion) found ( 1 have fractional translation)


                                    s                        frac. trans.

      isym =  1     identity                                     

 cryst.   s( 1) = (     1          0          0      )
                  (     0          1          0      )
                  (     0          0          1      )

 cart.    s( 1) = (  1.0000000  0.0000000  0.0000000 )
                  (  0.0000000  1.0000000  0.0000000 )
                  (  0.0000000  0.0000000  1.0000000 )


      isym =  2     inv. 180 deg rotation - cart. axis [1,0,0]   

 cryst.   s( 2) = (    -1          0          0      )    f =(  0.5000000 )
                  (     0          1          0      )       (  0.0000000 )
                  (     0          0          1      )       (  0.0000000 )

 cart.    s( 2) = ( -1.0000000  0.0000000  0.0000000 )    f =(  0.5000000 )
                  (  0.0000000  1.0000000  0.0000000 )       (  0.0000000 )
                  (  0.0000000  0.0000000  1.0000000 )       (  0.0000000 )


   Cartesian axes

     site n.     atom                  positions (alat units)
         1           Sn  tau(   1) = (   0.2500000   0.4089683   1.7994750  )
         2           Sn  tau(   2) = (   0.7500000   0.9337902   2.4969635  )
         3           S   tau(   3) = (   0.7500000   1.0123634   1.8668182  )
         4           S   tau(   4) = (   0.2500000   0.4875415   2.4296204  )

   Crystallographic axes

     site n.     atom                  positions (cryst. coord.)
         1           Sn  tau(   1) = (  0.2500000  0.3896259  0.3591249  )
         2           Sn  tau(   2) = (  0.7500000  0.8896260  0.4983241  )
         3           S   tau(   3) = (  0.7500000  0.9644830  0.3725647  )
         4           S   tau(   4) = (  0.2500000  0.4644829  0.4848843  )

     number of k points=    81  Marzari-Vanderbilt smearing, width (Ry)=  0.0147
                       cart. coord. in units 2pi/alat
        k(    1) = (   0.0000000   0.0000000   0.0000000), wk =   0.0123457
        k(    2) = (   0.0250000   0.0000000   0.0000000), wk =   0.0123457
        k(    3) = (   0.0500000   0.0000000   0.0000000), wk =   0.0123457
        k(    4) = (   0.0750000   0.0000000   0.0000000), wk =   0.0123457
        k(    5) = (   0.1000000   0.0000000   0.0000000), wk =   0.0123457
        k(    6) = (   0.1250000   0.0000000   0.0000000), wk =   0.0123457
        k(    7) = (   0.1500000   0.0000000   0.0000000), wk =   0.0123457
        k(    8) = (   0.1750000   0.0000000   0.0000000), wk =   0.0123457
        k(    9) = (   0.2000000   0.0000000   0.0000000), wk =   0.0123457
        k(   10) = (   0.2250000   0.0000000   0.0000000), wk =   0.0123457
        k(   11) = (   0.2500000   0.0000000   0.0000000), wk =   0.0123457
        k(   12) = (   0.2750000   0.0000000   0.0000000), wk =   0.0123457
        k(   13) = (   0.3000000   0.0000000   0.0000000), wk =   0.0123457
        k(   14) = (   0.3250000   0.0000000   0.0000000), wk =   0.0123457
        k(   15) = (   0.3500000   0.0000000   0.0000000), wk =   0.0123457
        k(   16) = (   0.3750000   0.0000000   0.0000000), wk =   0.0123457
        k(   17) = (   0.4000000   0.0000000   0.0000000), wk =   0.0123457
        k(   18) = (   0.4250000   0.0000000   0.0000000), wk =   0.0123457
        k(   19) = (   0.4500000   0.0000000   0.0000000), wk =   0.0123457
        k(   20) = (   0.4750000   0.0000000   0.0000000), wk =   0.0123457
        k(   21) = (   0.5000000   0.0000000   0.0000000), wk =   0.0123457
        k(   22) = (   0.5000000   0.0238176   0.0000000), wk =   0.0123457
        k(   23) = (   0.5000000   0.0476352   0.0000000), wk =   0.0123457
        k(   24) = (   0.5000000   0.0714528   0.0000000), wk =   0.0123457
        k(   25) = (   0.5000000   0.0952704   0.0000000), wk =   0.0123457
        k(   26) = (   0.5000000   0.1190880   0.0000000), wk =   0.0123457
        k(   27) = (   0.5000000   0.1429057   0.0000000), wk =   0.0123457
        k(   28) = (   0.5000000   0.1667233   0.0000000), wk =   0.0123457
        k(   29) = (   0.5000000   0.1905409   0.0000000), wk =   0.0123457
        k(   30) = (   0.5000000   0.2143585   0.0000000), wk =   0.0123457
        k(   31) = (   0.5000000   0.2381761   0.0000000), wk =   0.0123457
        k(   32) = (   0.5000000   0.2619937   0.0000000), wk =   0.0123457
        k(   33) = (   0.5000000   0.2858113   0.0000000), wk =   0.0123457
        k(   34) = (   0.5000000   0.3096289   0.0000000), wk =   0.0123457
        k(   35) = (   0.5000000   0.3334465   0.0000000), wk =   0.0123457
        k(   36) = (   0.5000000   0.3572641   0.0000000), wk =   0.0123457
        k(   37) = (   0.5000000   0.3810817   0.0000000), wk =   0.0123457
        k(   38) = (   0.5000000   0.4048994   0.0000000), wk =   0.0123457
        k(   39) = (   0.5000000   0.4287170   0.0000000), wk =   0.0123457
        k(   40) = (   0.5000000   0.4525346   0.0000000), wk =   0.0123457
        k(   41) = (   0.5000000   0.4763522   0.0000000), wk =   0.0123457
        k(   42) = (   0.4750000   0.4763522   0.0000000), wk =   0.0123457
        k(   43) = (   0.4500000   0.4763522   0.0000000), wk =   0.0123457
        k(   44) = (   0.4250000   0.4763522   0.0000000), wk =   0.0123457
        k(   45) = (   0.4000000   0.4763522   0.0000000), wk =   0.0123457
        k(   46) = (   0.3750000   0.4763522   0.0000000), wk =   0.0123457
        k(   47) = (   0.3500000   0.4763522   0.0000000), wk =   0.0123457
        k(   48) = (   0.3250000   0.4763522   0.0000000), wk =   0.0123457
        k(   49) = (   0.3000000   0.4763522   0.0000000), wk =   0.0123457
        k(   50) = (   0.2750000   0.4763522   0.0000000), wk =   0.0123457
        k(   51) = (   0.2500000   0.4763522   0.0000000), wk =   0.0123457
        k(   52) = (   0.2250000   0.4763522   0.0000000), wk =   0.0123457
        k(   53) = (   0.2000000   0.4763522   0.0000000), wk =   0.0123457
        k(   54) = (   0.1750000   0.4763522   0.0000000), wk =   0.0123457
        k(   55) = (   0.1500000   0.4763522   0.0000000), wk =   0.0123457
        k(   56) = (   0.1250000   0.4763522   0.0000000), wk =   0.0123457
        k(   57) = (   0.1000000   0.4763522   0.0000000), wk =   0.0123457
        k(   58) = (   0.0750000   0.4763522   0.0000000), wk =   0.0123457
        k(   59) = (   0.0500000   0.4763522   0.0000000), wk =   0.0123457
        k(   60) = (   0.0250000   0.4763522   0.0000000), wk =   0.0123457
        k(   61) = (   0.0000000   0.4763522   0.0000000), wk =   0.0123457
        k(   62) = (   0.0000000   0.4525346   0.0000000), wk =   0.0123457
        k(   63) = (   0.0000000   0.4287170   0.0000000), wk =   0.0123457
        k(   64) = (   0.0000000   0.4048994   0.0000000), wk =   0.0123457
        k(   65) = (   0.0000000   0.3810817   0.0000000), wk =   0.0123457
        k(   66) = (   0.0000000   0.3572641   0.0000000), wk =   0.0123457
        k(   67) = (   0.0000000   0.3334465   0.0000000), wk =   0.0123457
        k(   68) = (   0.0000000   0.3096289   0.0000000), wk =   0.0123457
        k(   69) = (   0.0000000   0.2858113   0.0000000), wk =   0.0123457
        k(   70) = (   0.0000000   0.2619937   0.0000000), wk =   0.0123457
        k(   71) = (   0.0000000   0.2381761   0.0000000), wk =   0.0123457
        k(   72) = (   0.0000000   0.2143585   0.0000000), wk =   0.0123457
        k(   73) = (   0.0000000   0.1905409   0.0000000), wk =   0.0123457
        k(   74) = (   0.0000000   0.1667233   0.0000000), wk =   0.0123457
        k(   75) = (   0.0000000   0.1429057   0.0000000), wk =   0.0123457
        k(   76) = (   0.0000000   0.1190880   0.0000000), wk =   0.0123457
        k(   77) = (   0.0000000   0.0952704   0.0000000), wk =   0.0123457
        k(   78) = (   0.0000000   0.0714528   0.0000000), wk =   0.0123457
        k(   79) = (   0.0000000   0.0476352   0.0000000), wk =   0.0123457
        k(   80) = (   0.0000000   0.0238176   0.0000000), wk =   0.0123457
        k(   81) = (   0.0000000   0.0000000   0.0000000), wk =   0.0123457

                       cryst. coord.
        k(    1) = (   0.0000000   0.0000000   0.0000000), wk =   0.0123457
        k(    2) = (   0.0250000   0.0000000   0.0000000), wk =   0.0123457
        k(    3) = (   0.0500000   0.0000000   0.0000000), wk =   0.0123457
        k(    4) = (   0.0750000   0.0000000   0.0000000), wk =   0.0123457
        k(    5) = (   0.1000000   0.0000000   0.0000000), wk =   0.0123457
        k(    6) = (   0.1250000   0.0000000   0.0000000), wk =   0.0123457
        k(    7) = (   0.1500000   0.0000000   0.0000000), wk =   0.0123457
        k(    8) = (   0.1750000   0.0000000   0.0000000), wk =   0.0123457
        k(    9) = (   0.2000000   0.0000000   0.0000000), wk =   0.0123457
        k(   10) = (   0.2250000   0.0000000   0.0000000), wk =   0.0123457
        k(   11) = (   0.2500000   0.0000000   0.0000000), wk =   0.0123457
        k(   12) = (   0.2750000   0.0000000   0.0000000), wk =   0.0123457
        k(   13) = (   0.3000000   0.0000000   0.0000000), wk =   0.0123457
        k(   14) = (   0.3250000   0.0000000   0.0000000), wk =   0.0123457
        k(   15) = (   0.3500000   0.0000000   0.0000000), wk =   0.0123457
        k(   16) = (   0.3750000   0.0000000   0.0000000), wk =   0.0123457
        k(   17) = (   0.4000000   0.0000000   0.0000000), wk =   0.0123457
        k(   18) = (   0.4250000   0.0000000   0.0000000), wk =   0.0123457
        k(   19) = (   0.4500000   0.0000000   0.0000000), wk =   0.0123457
        k(   20) = (   0.4750000   0.0000000   0.0000000), wk =   0.0123457
        k(   21) = (   0.5000000   0.0000000   0.0000000), wk =   0.0123457
        k(   22) = (   0.5000000   0.0250000   0.0000000), wk =   0.0123457
        k(   23) = (   0.5000000   0.0500000   0.0000000), wk =   0.0123457
        k(   24) = (   0.5000000   0.0750000   0.0000000), wk =   0.0123457
        k(   25) = (   0.5000000   0.1000000   0.0000000), wk =   0.0123457
        k(   26) = (   0.5000000   0.1250000   0.0000000), wk =   0.0123457
        k(   27) = (   0.5000000   0.1500000   0.0000000), wk =   0.0123457
        k(   28) = (   0.5000000   0.1750000   0.0000000), wk =   0.0123457
        k(   29) = (   0.5000000   0.2000000   0.0000000), wk =   0.0123457
        k(   30) = (   0.5000000   0.2250000   0.0000000), wk =   0.0123457
        k(   31) = (   0.5000000   0.2500000   0.0000000), wk =   0.0123457
        k(   32) = (   0.5000000   0.2750000   0.0000000), wk =   0.0123457
        k(   33) = (   0.5000000   0.3000000   0.0000000), wk =   0.0123457
        k(   34) = (   0.5000000   0.3250000   0.0000000), wk =   0.0123457
        k(   35) = (   0.5000000   0.3500000   0.0000000), wk =   0.0123457
        k(   36) = (   0.5000000   0.3750000   0.0000000), wk =   0.0123457
        k(   37) = (   0.5000000   0.4000000   0.0000000), wk =   0.0123457
        k(   38) = (   0.5000000   0.4250000   0.0000000), wk =   0.0123457
        k(   39) = (   0.5000000   0.4500000   0.0000000), wk =   0.0123457
        k(   40) = (   0.5000000   0.4750000   0.0000000), wk =   0.0123457
        k(   41) = (   0.5000000   0.5000000   0.0000000), wk =   0.0123457
        k(   42) = (   0.4750000   0.5000000   0.0000000), wk =   0.0123457
        k(   43) = (   0.4500000   0.5000000   0.0000000), wk =   0.0123457
        k(   44) = (   0.4250000   0.5000000   0.0000000), wk =   0.0123457
        k(   45) = (   0.4000000   0.5000000   0.0000000), wk =   0.0123457
        k(   46) = (   0.3750000   0.5000000   0.0000000), wk =   0.0123457
        k(   47) = (   0.3500000   0.5000000   0.0000000), wk =   0.0123457
        k(   48) = (   0.3250000   0.5000000   0.0000000), wk =   0.0123457
        k(   49) = (   0.3000000   0.5000000   0.0000000), wk =   0.0123457
        k(   50) = (   0.2750000   0.5000000   0.0000000), wk =   0.0123457
        k(   51) = (   0.2500000   0.5000000   0.0000000), wk =   0.0123457
        k(   52) = (   0.2250000   0.5000000   0.0000000), wk =   0.0123457
        k(   53) = (   0.2000000   0.5000000   0.0000000), wk =   0.0123457
        k(   54) = (   0.1750000   0.5000000   0.0000000), wk =   0.0123457
        k(   55) = (   0.1500000   0.5000000   0.0000000), wk =   0.0123457
        k(   56) = (   0.1250000   0.5000000   0.0000000), wk =   0.0123457
        k(   57) = (   0.1000000   0.5000000   0.0000000), wk =   0.0123457
        k(   58) = (   0.0750000   0.5000000   0.0000000), wk =   0.0123457
        k(   59) = (   0.0500000   0.5000000   0.0000000), wk =   0.0123457
        k(   60) = (   0.0250000   0.5000000   0.0000000), wk =   0.0123457
        k(   61) = (   0.0000000   0.5000000   0.0000000), wk =   0.0123457
        k(   62) = (   0.0000000   0.4750000   0.0000000), wk =   0.0123457
        k(   63) = (   0.0000000   0.4500000   0.0000000), wk =   0.0123457
        k(   64) = (   0.0000000   0.4250000   0.0000000), wk =   0.0123457
        k(   65) = (   0.0000000   0.4000000   0.0000000), wk =   0.0123457
        k(   66) = (   0.0000000   0.3750000   0.0000000), wk =   0.0123457
        k(   67) = (   0.0000000   0.3500000   0.0000000), wk =   0.0123457
        k(   68) = (   0.0000000   0.3250000   0.0000000), wk =   0.0123457
        k(   69) = (   0.0000000   0.3000000   0.0000000), wk =   0.0123457
        k(   70) = (   0.0000000   0.2750000   0.0000000), wk =   0.0123457
        k(   71) = (   0.0000000   0.2500000   0.0000000), wk =   0.0123457
        k(   72) = (   0.0000000   0.2250000   0.0000000), wk =   0.0123457
        k(   73) = (   0.0000000   0.2000000   0.0000000), wk =   0.0123457
        k(   74) = (   0.0000000   0.1750000   0.0000000), wk =   0.0123457
        k(   75) = (   0.0000000   0.1500000   0.0000000), wk =   0.0123457
        k(   76) = (   0.0000000   0.1250000   0.0000000), wk =   0.0123457
        k(   77) = (   0.0000000   0.1000000   0.0000000), wk =   0.0123457
        k(   78) = (   0.0000000   0.0750000   0.0000000), wk =   0.0123457
        k(   79) = (   0.0000000   0.0500000   0.0000000), wk =   0.0123457
        k(   80) = (   0.0000000   0.0250000   0.0000000), wk =   0.0123457
        k(   81) = (   0.0000000   0.0000000   0.0000000), wk =   0.0123457

     Dense  grid:   428421 G-vectors     FFT dimensions: (  54,  60, 270)

     Smooth grid:   151291 G-vectors     FFT dimensions: (  40,  40, 192)

     Dynamical RAM for                 wfc:       2.31 MB

     Dynamical RAM for     wfc (w. buffer):       2.31 MB

     Dynamical RAM for           str. fact:       1.09 MB

     Dynamical RAM for           local pot:       0.00 MB

     Dynamical RAM for          nlocal pot:       1.73 MB

     Dynamical RAM for                qrad:       3.52 MB

     Dynamical RAM for          rho,v,vnew:      13.36 MB

     Dynamical RAM for           G-vectors:       2.14 MB

     Dynamical RAM for          h,s,v(r/c):       0.42 MB

     Dynamical RAM for          <psi|beta>:       0.11 MB

     Dynamical RAM for                 psi:       4.62 MB

     Dynamical RAM for                hpsi:       4.62 MB

     Dynamical RAM for                spsi:       4.62 MB

     Dynamical RAM for      wfcinit/wfcrot:       3.82 MB

     Dynamical RAM for           addusdens:     102.43 MB

     Estimated static dynamical RAM per process >      30.33 MB

     Estimated max dynamical RAM per process >     132.77 MB

     Estimated total dynamical RAM >       1.56 GB

     The potential is recalculated from file :
     ./SnS.save/charge-density


     negative rho (up, down):  4.864E-05 0.000E+00
     Starting wfcs are   52 randomized atomic wfcs

     Band Structure Calculation
     Davidson diagonalization with overlap

     Computing kpt #:     1  of    81
     total cpu time spent up to now is        6.1 secs

     Computing kpt #:     2  of    81
     total cpu time spent up to now is       10.5 secs

     Computing kpt #:     3  of    81
     total cpu time spent up to now is       15.0 secs

     Computing kpt #:     4  of    81
     total cpu time spent up to now is       19.3 secs

     Computing kpt #:     5  of    81
     total cpu time spent up to now is       23.7 secs

     Computing kpt #:     6  of    81
     total cpu time spent up to now is       28.0 secs

     Computing kpt #:     7  of    81
     total cpu time spent up to now is       32.1 secs

     Computing kpt #:     8  of    81
     total cpu time spent up to now is       36.1 secs

     Computing kpt #:     9  of    81
     total cpu time spent up to now is       40.2 secs

     Computing kpt #:    10  of    81
     total cpu time spent up to now is       44.4 secs

     Computing kpt #:    11  of    81
     total cpu time spent up to now is       48.4 secs

     Computing kpt #:    12  of    81
     total cpu time spent up to now is       52.4 secs

     Computing kpt #:    13  of    81
     total cpu time spent up to now is       56.4 secs

     Computing kpt #:    14  of    81
     total cpu time spent up to now is       60.5 secs

     Computing kpt #:    15  of    81
     total cpu time spent up to now is       64.6 secs

     Computing kpt #:    16  of    81
     total cpu time spent up to now is       68.7 secs

     Computing kpt #:    17  of    81
     total cpu time spent up to now is       72.9 secs

     Computing kpt #:    18  of    81
     total cpu time spent up to now is       77.4 secs

     Computing kpt #:    19  of    81
     total cpu time spent up to now is       81.5 secs

     Computing kpt #:    20  of    81
     total cpu time spent up to now is       85.6 secs

     Computing kpt #:    21  of    81
     total cpu time spent up to now is       90.5 secs

     Computing kpt #:    22  of    81
     total cpu time spent up to now is       94.6 secs

     Computing kpt #:    23  of    81
     total cpu time spent up to now is       98.7 secs

     Computing kpt #:    24  of    81
     total cpu time spent up to now is      102.9 secs

     Computing kpt #:    25  of    81
     total cpu time spent up to now is      107.1 secs

     Computing kpt #:    26  of    81
     total cpu time spent up to now is      111.3 secs

     Computing kpt #:    27  of    81
     total cpu time spent up to now is      115.4 secs

     Computing kpt #:    28  of    81
     total cpu time spent up to now is      119.5 secs

     Computing kpt #:    29  of    81
     total cpu time spent up to now is      123.6 secs

     Computing kpt #:    30  of    81
     total cpu time spent up to now is      127.7 secs

     Computing kpt #:    31  of    81
     total cpu time spent up to now is      131.7 secs

     Computing kpt #:    32  of    81
     total cpu time spent up to now is      137.0 secs

     Computing kpt #:    33  of    81
     total cpu time spent up to now is      141.0 secs

     Computing kpt #:    34  of    81
     total cpu time spent up to now is      144.9 secs

     Computing kpt #:    35  of    81
     total cpu time spent up to now is      149.0 secs

     Computing kpt #:    36  of    81
     total cpu time spent up to now is      153.1 secs

     Computing kpt #:    37  of    81
     total cpu time spent up to now is      157.2 secs

     Computing kpt #:    38  of    81
     total cpu time spent up to now is      161.2 secs

     Computing kpt #:    39  of    81
     total cpu time spent up to now is      165.3 secs

     Computing kpt #:    40  of    81
     total cpu time spent up to now is      169.4 secs

     Computing kpt #:    41  of    81
     total cpu time spent up to now is      173.5 secs

     Computing kpt #:    42  of    81
     total cpu time spent up to now is      177.6 secs

     Computing kpt #:    43  of    81
     total cpu time spent up to now is      181.7 secs

     Computing kpt #:    44  of    81
     total cpu time spent up to now is      185.7 secs

     Computing kpt #:    45  of    81
     total cpu time spent up to now is      189.8 secs

     Computing kpt #:    46  of    81
     total cpu time spent up to now is      193.8 secs

     Computing kpt #:    47  of    81
     total cpu time spent up to now is      197.9 secs

     Computing kpt #:    48  of    81
     total cpu time spent up to now is      202.1 secs

     Computing kpt #:    49  of    81
     total cpu time spent up to now is      206.1 secs

     Computing kpt #:    50  of    81
     total cpu time spent up to now is      210.2 secs

     Computing kpt #:    51  of    81
     total cpu time spent up to now is      214.3 secs

     Computing kpt #:    52  of    81
     total cpu time spent up to now is      218.4 secs

     Computing kpt #:    53  of    81
     total cpu time spent up to now is      222.5 secs

     Computing kpt #:    54  of    81
     total cpu time spent up to now is      227.2 secs

     Computing kpt #:    55  of    81
     total cpu time spent up to now is      231.5 secs

     Computing kpt #:    56  of    81
     total cpu time spent up to now is      235.6 secs

     Computing kpt #:    57  of    81
     total cpu time spent up to now is      239.8 secs

     Computing kpt #:    58  of    81
     total cpu time spent up to now is      244.0 secs

     Computing kpt #:    59  of    81
     total cpu time spent up to now is      248.2 secs

     Computing kpt #:    60  of    81
     total cpu time spent up to now is      252.4 secs

     Computing kpt #:    61  of    81
     total cpu time spent up to now is      257.3 secs

     Computing kpt #:    62  of    81
     total cpu time spent up to now is      261.6 secs

     Computing kpt #:    63  of    81
     total cpu time spent up to now is      266.0 secs

     Computing kpt #:    64  of    81
     total cpu time spent up to now is      270.7 secs

     Computing kpt #:    65  of    81
     total cpu time spent up to now is      274.8 secs

     Computing kpt #:    66  of    81
     total cpu time spent up to now is      278.8 secs

     Computing kpt #:    67  of    81
     total cpu time spent up to now is      282.6 secs

     Computing kpt #:    68  of    81
     total cpu time spent up to now is      287.4 secs

     Computing kpt #:    69  of    81
     total cpu time spent up to now is      291.4 secs

     Computing kpt #:    70  of    81
     total cpu time spent up to now is      295.2 secs

     Computing kpt #:    71  of    81
     total cpu time spent up to now is      299.2 secs

     Computing kpt #:    72  of    81
     total cpu time spent up to now is      303.1 secs

     Computing kpt #:    73  of    81
     total cpu time spent up to now is      307.0 secs

     Computing kpt #:    74  of    81
     total cpu time spent up to now is      311.1 secs

     Computing kpt #:    75  of    81
     total cpu time spent up to now is      315.2 secs

     Computing kpt #:    76  of    81
     c_bands:  2 eigenvalues not converged
     total cpu time spent up to now is      320.1 secs

     Computing kpt #:    77  of    81
     total cpu time spent up to now is      324.8 secs

     Computing kpt #:    78  of    81
     total cpu time spent up to now is      329.4 secs

     Computing kpt #:    79  of    81
     total cpu time spent up to now is      333.9 secs

     Computing kpt #:    80  of    81
     total cpu time spent up to now is      338.3 secs

     Computing kpt #:    81  of    81
     total cpu time spent up to now is      342.8 secs

     ethr =  2.00E-12,  avg # of iterations = 74.4

     total cpu time spent up to now is      342.8 secs

     End of band structure calculation

          k = 0.0000 0.0000 0.0000 ( 18903 PWs)   bands (ev):

   -22.1963 -22.1963 -22.1863 -22.1863 -22.1809 -22.1809 -22.1741 -22.1741
   -22.1704 -22.1704 -22.1419 -22.1419 -22.1307 -22.1307 -22.1257 -22.1257
   -22.1160 -22.1160 -22.1109 -22.1109 -14.4767 -14.4767 -13.0527 -13.0527
    -7.5979  -7.5979  -5.7146  -5.7146  -4.8988  -4.8988  -4.3995  -4.3995
    -4.2998  -4.2998  -3.0118  -3.0118  -2.9916  -2.9916  -1.4479  -1.4479
     0.4116   0.4116   2.0673   2.0673   2.5770   2.5770   2.8318   2.8318

          k = 0.0250 0.0000 0.0000 ( 18939 PWs)   bands (ev):

   -22.1961 -22.1961 -22.1862 -22.1862 -22.1810 -22.1810 -22.1742 -22.1742
   -22.1702 -22.1702 -22.1419 -22.1419 -22.1307 -22.1307 -22.1257 -22.1257
   -22.1161 -22.1161 -22.1109 -22.1109 -14.4732 -14.4732 -13.0520 -13.0520
    -7.6064  -7.6064  -5.7308  -5.7308  -4.8970  -4.8970  -4.3987  -4.3987
    -4.2922  -4.2922  -3.0230  -3.0230  -2.9642  -2.9642  -1.4512  -1.4512
     0.4164   0.4164   2.0809   2.0809   2.5791   2.5791   2.8090   2.8090

          k = 0.0500 0.0000 0.0000 ( 18933 PWs)   bands (ev):

   -22.1958 -22.1958 -22.1859 -22.1859 -22.1812 -22.1812 -22.1747 -22.1747
   -22.1698 -22.1698 -22.1420 -22.1420 -22.1308 -22.1308 -22.1256 -22.1256
   -22.1163 -22.1163 -22.1109 -22.1109 -14.4627 -14.4627 -13.0498 -13.0498
    -7.6314  -7.6314  -5.7787  -5.7787  -4.8910  -4.8910  -4.3952  -4.3952
    -4.2707  -4.2707  -3.0286  -3.0286  -2.9109  -2.9109  -1.4610  -1.4610
     0.4308   0.4308   2.1206   2.1206   2.5839   2.5839   2.7354   2.7354

          k = 0.0750 0.0000 0.0000 ( 18931 PWs)   bands (ev):

   -22.1951 -22.1951 -22.1854 -22.1854 -22.1815 -22.1815 -22.1754 -22.1754
   -22.1692 -22.1692 -22.1420 -22.1420 -22.1308 -22.1308 -22.1253 -22.1253
   -22.1167 -22.1167 -22.1109 -22.1109 -14.4453 -14.4453 -13.0465 -13.0465
    -7.6717  -7.6717  -5.8564  -5.8564  -4.8789  -4.8789  -4.3867  -4.3867
    -4.2377  -4.2377  -3.0253  -3.0253  -2.8388  -2.8388  -1.4777  -1.4777
     0.4548   0.4548   2.1829   2.1829   2.5856   2.5856   2.6068   2.6068

          k = 0.1000 0.0000 0.0000 ( 18929 PWs)   bands (ev):

   -22.1943 -22.1943 -22.1847 -22.1847 -22.1820 -22.1820 -22.1761 -22.1761
   -22.1686 -22.1686 -22.1422 -22.1422 -22.1309 -22.1309 -22.1250 -22.1250
   -22.1171 -22.1171 -22.1108 -22.1108 -14.4211 -14.4211 -13.0424 -13.0424
    -7.7257  -7.7257  -5.9604  -5.9604  -4.8592  -4.8592  -4.3716  -4.3716
    -4.1950  -4.1950  -3.0151  -3.0151  -2.7504  -2.7504  -1.5015  -1.5015
     0.4884   0.4884   2.2613   2.2613   2.4250   2.4250   2.5808   2.5808

          k = 0.1250 0.0000 0.0000 ( 18911 PWs)   bands (ev):

   -22.1933 -22.1933 -22.1840 -22.1840 -22.1824 -22.1824 -22.1769 -22.1769
   -22.1678 -22.1678 -22.1423 -22.1423 -22.1310 -22.1310 -22.1246 -22.1246
   -22.1177 -22.1177 -22.1108 -22.1108 -14.3902 -14.3902 -13.0378 -13.0378
    -7.7909  -7.7909  -6.0862  -6.0862  -4.8311  -4.8311  -4.3490  -4.3490
    -4.1438  -4.1438  -2.9998  -2.9998  -2.6489  -2.6489  -1.5326  -1.5326
     0.5317   0.5317   2.2129   2.2129   2.3453   2.3453   2.5471   2.5471

          k = 0.1500 0.0000 0.0000 ( 18895 PWs)   bands (ev):

   -22.1922 -22.1922 -22.1837 -22.1837 -22.1823 -22.1823 -22.1777 -22.1777
   -22.1670 -22.1670 -22.1425 -22.1425 -22.1311 -22.1311 -22.1241 -22.1241
   -22.1183 -22.1183 -22.1108 -22.1108 -14.3528 -14.3528 -13.0333 -13.0333
    -7.8647  -7.8647  -6.2292  -6.2292  -4.7942  -4.7942  -4.3188  -4.3188
    -4.0849  -4.0849  -2.9811  -2.9811  -2.5374  -2.5374  -1.5709  -1.5709
     0.5847   0.5847   1.9818   1.9818   2.4202   2.4202   2.4733   2.4733

          k = 0.1750 0.0000 0.0000 ( 18893 PWs)   bands (ev):

   -22.1911 -22.1911 -22.1843 -22.1843 -22.1815 -22.1815 -22.1785 -22.1785
   -22.1661 -22.1661 -22.1427 -22.1427 -22.1312 -22.1312 -22.1235 -22.1235
   -22.1190 -22.1190 -22.1108 -22.1108 -14.3092 -14.3092 -13.0297 -13.0297
    -7.9439  -7.9439  -6.3847  -6.3847  -4.7489  -4.7489  -4.2808  -4.2808
    -4.0191  -4.0191  -2.9601  -2.9601  -2.4188  -2.4188  -1.6163  -1.6163
     0.6473   0.6473   1.7413   1.7413   2.3607   2.3607   2.4672   2.4672

          k = 0.2000 0.0000 0.0000 ( 18895 PWs)   bands (ev):

   -22.1899 -22.1899 -22.1850 -22.1850 -22.1804 -22.1804 -22.1792 -22.1792
   -22.1652 -22.1652 -22.1430 -22.1430 -22.1313 -22.1313 -22.1228 -22.1228
   -22.1198 -22.1198 -22.1108 -22.1108 -14.2597 -14.2597 -13.0278 -13.0278
    -8.0255  -8.0255  -6.5488  -6.5488  -4.6955  -4.6955  -4.2356  -4.2356
    -3.9471  -3.9471  -2.9384  -2.9384  -2.2956  -2.2956  -1.6680  -1.6680
     0.7196   0.7196   1.4980   1.4980   2.2227   2.2227   2.4688   2.4688

          k = 0.2250 0.0000 0.0000 ( 18895 PWs)   bands (ev):

   -22.1890 -22.1890 -22.1859 -22.1859 -22.1796 -22.1796 -22.1792 -22.1792
   -22.1642 -22.1642 -22.1433 -22.1433 -22.1313 -22.1313 -22.1221 -22.1221
   -22.1207 -22.1207 -22.1108 -22.1108 -14.2046 -14.2046 -13.0283 -13.0283
    -8.1062  -8.1062  -6.7179  -6.7179  -4.6347  -4.6347  -4.1835  -4.1835
    -3.8698  -3.8698  -2.9175  -2.9175  -2.1699  -2.1699  -1.7249  -1.7249
     0.8013   0.8013   1.2572   1.2572   2.0728   2.0728   2.4158   2.4158

          k = 0.2500 0.0000 0.0000 ( 18883 PWs)   bands (ev):

   -22.1884 -22.1884 -22.1867 -22.1867 -22.1797 -22.1797 -22.1780 -22.1780
   -22.1632 -22.1632 -22.1437 -22.1437 -22.1314 -22.1314 -22.1215 -22.1215
   -22.1213 -22.1213 -22.1108 -22.1108 -14.1444 -14.1444 -13.0323 -13.0323
    -8.1831  -8.1831  -6.8889  -6.8889  -4.5670  -4.5670  -4.1254  -4.1254
    -3.7884  -3.7884  -2.8988  -2.8988  -2.0439  -2.0439  -1.7853  -1.7853
     0.8922   0.8922   1.0232   1.0232   1.9215   1.9215   2.3115   2.3115

          k = 0.2750 0.0000 0.0000 ( 18879 PWs)   bands (ev):

   -22.1883 -22.1883 -22.1876 -22.1876 -22.1793 -22.1793 -22.1768 -22.1768
   -22.1621 -22.1621 -22.1442 -22.1442 -22.1314 -22.1314 -22.1224 -22.1224
   -22.1205 -22.1205 -22.1109 -22.1109 -14.0795 -14.0795 -13.0406 -13.0406
    -8.2531  -8.2531  -7.0594  -7.0594  -4.4932  -4.4932  -4.0622  -4.0622
    -3.7044  -3.7044  -2.8842  -2.8842  -1.9204  -1.9204  -1.8468  -1.8468
     0.8008   0.8008   0.9921   0.9921   1.7766   1.7766   2.1669   2.1669

          k = 0.3000 0.0000 0.0000 ( 18877 PWs)   bands (ev):

   -22.1885 -22.1885 -22.1884 -22.1884 -22.1786 -22.1786 -22.1758 -22.1758
   -22.1610 -22.1610 -22.1447 -22.1447 -22.1313 -22.1313 -22.1233 -22.1233
   -22.1196 -22.1196 -22.1109 -22.1109 -14.0105 -14.0105 -13.0543 -13.0543
    -8.3136  -8.3136  -7.2270  -7.2270  -4.4139  -4.4139  -3.9953  -3.9953
    -3.6201  -3.6201  -2.8754  -2.8754  -1.9061  -1.9061  -1.8031  -1.8031
     0.5952   0.5952   1.1004   1.1004   1.6440   1.6440   1.9940   1.9940

          k = 0.3250 0.0000 0.0000 ( 18875 PWs)   bands (ev):

   -22.1892 -22.1892 -22.1889 -22.1889 -22.1777 -22.1777 -22.1748 -22.1748
   -22.1598 -22.1598 -22.1453 -22.1453 -22.1312 -22.1312 -22.1242 -22.1242
   -22.1187 -22.1187 -22.1110 -22.1110 -13.9381 -13.9381 -13.0741 -13.0741
    -8.3622  -8.3622  -7.3897  -7.3897  -4.3302  -4.3302  -3.9266  -3.9266
    -3.5379  -3.5379  -2.8739  -2.8739  -1.9589  -1.9589  -1.6973  -1.6973
     0.4133   0.4133   1.2163   1.2163   1.5286   1.5286   1.8029   1.8029

          k = 0.3500 0.0000 0.0000 ( 18885 PWs)   bands (ev):

   -22.1899 -22.1899 -22.1895 -22.1895 -22.1767 -22.1767 -22.1739 -22.1739
   -22.1586 -22.1586 -22.1460 -22.1460 -22.1311 -22.1311 -22.1250 -22.1250
   -22.1179 -22.1179 -22.1111 -22.1111 -13.8631 -13.8631 -13.1007 -13.1007
    -8.3968  -8.3968  -7.5456  -7.5456  -4.2430  -4.2430  -3.8587  -3.8587
    -3.4611  -3.4611  -2.8813  -2.8813  -1.9999  -1.9999  -1.6107  -1.6107
     0.2642   0.2642   1.3375   1.3375   1.4343   1.4343   1.6020   1.6020

          k = 0.3750 0.0000 0.0000 ( 18903 PWs)   bands (ev):

   -22.1906 -22.1906 -22.1901 -22.1901 -22.1757 -22.1757 -22.1733 -22.1733
   -22.1574 -22.1574 -22.1468 -22.1468 -22.1309 -22.1309 -22.1258 -22.1258
   -22.1170 -22.1170 -22.1113 -22.1113 -13.7861 -13.7861 -13.1344 -13.1344
    -8.4159  -8.4159  -7.6932  -7.6932  -4.1537  -4.1537  -3.7956  -3.7956
    -3.3922  -3.3922  -2.8986  -2.8986  -2.0232  -2.0232  -1.5530  -1.5530
     0.1589   0.1589   1.3638   1.3638   1.3828   1.3828   1.4750   1.4750

          k = 0.4000 0.0000 0.0000 ( 18877 PWs)   bands (ev):

   -22.1911 -22.1911 -22.1907 -22.1907 -22.1747 -22.1747 -22.1727 -22.1727
   -22.1562 -22.1562 -22.1476 -22.1476 -22.1306 -22.1306 -22.1265 -22.1265
   -22.1161 -22.1161 -22.1115 -22.1115 -13.7082 -13.7082 -13.1756 -13.1756
    -8.4183  -8.4183  -7.8307  -7.8307  -4.0640  -4.0640  -3.7427  -3.7427
    -3.3325  -3.3325  -2.9260  -2.9260  -2.0233  -2.0233  -1.5334  -1.5334
     0.1080   0.1080   1.1819   1.1819   1.3190   1.3190   1.5856   1.5856

          k = 0.4250 0.0000 0.0000 ( 18909 PWs)   bands (ev):

   -22.1915 -22.1915 -22.1912 -22.1912 -22.1739 -22.1739 -22.1724 -22.1724
   -22.1550 -22.1550 -22.1485 -22.1485 -22.1303 -22.1303 -22.1272 -22.1272
   -22.1153 -22.1153 -22.1118 -22.1118 -13.6303 -13.6303 -13.2240 -13.2240
    -8.4032  -8.4032  -7.9568  -7.9568  -3.9761  -3.9761  -3.7075  -3.7075
    -3.2794  -3.2794  -2.9633  -2.9633  -1.9969  -1.9969  -1.5553  -1.5553
     0.1165   0.1165   0.9786   0.9786   1.3011   1.3011   1.6393   1.6393

          k = 0.4500 0.0000 0.0000 ( 18907 PWs)   bands (ev):

   -22.1918 -22.1918 -22.1915 -22.1915 -22.1732 -22.1732 -22.1722 -22.1722
   -22.1538 -22.1538 -22.1495 -22.1495 -22.1299 -22.1299 -22.1279 -22.1279
   -22.1146 -22.1146 -22.1122 -22.1122 -13.5535 -13.5535 -13.2793 -13.2793
    -8.3704  -8.3704  -8.0700  -8.0700  -3.8927  -3.8927  -3.6970  -3.6970
    -3.2280  -3.2280  -3.0093  -3.0093  -1.9446  -1.9446  -1.6129  -1.6129
     0.1804   0.1804   0.7825   0.7825   1.3101   1.3101   1.5760   1.5760

          k = 0.4750 0.0000 0.0000 ( 18871 PWs)   bands (ev):

   -22.1920 -22.1920 -22.1918 -22.1918 -22.1727 -22.1727 -22.1722 -22.1722
   -22.1527 -22.1527 -22.1505 -22.1505 -22.1295 -22.1295 -22.1285 -22.1285
   -22.1139 -22.1139 -22.1127 -22.1127 -13.4790 -13.4790 -13.3408 -13.3408
    -8.3201  -8.3201  -8.1690  -8.1690  -3.8178  -3.8178  -3.7140  -3.7140
    -3.1742  -3.1742  -3.0618  -3.0618  -1.8710  -1.8710  -1.6938  -1.6938
     0.2892   0.2892   0.5985   0.5985   1.3451   1.3451   1.4843   1.4843

          k = 0.5000 0.0000 0.0000 ( 18860 PWs)   bands (ev):

   -22.1921 -22.1921 -22.1919 -22.1919 -22.1724 -22.1724 -22.1723 -22.1723
   -22.1516 -22.1516 -22.1515 -22.1515 -22.1291 -22.1291 -22.1289 -22.1289
   -22.1133 -22.1133 -22.1131 -22.1131 -13.4077 -13.4077 -13.4076 -13.4076
    -8.2528  -8.2528  -8.2526  -8.2526  -3.7562  -3.7562  -3.7562  -3.7562
    -3.1180  -3.1180  -3.1179  -3.1179  -1.7840  -1.7840  -1.7839  -1.7839
     0.4316   0.4316   0.4317   0.4317   1.4042   1.4042   1.4044   1.4044

          k = 0.5000 0.0238 0.0000 ( 18868 PWs)   bands (ev):

   -22.1921 -22.1921 -22.1920 -22.1920 -22.1724 -22.1724 -22.1722 -22.1722
   -22.1516 -22.1516 -22.1515 -22.1515 -22.1291 -22.1291 -22.1289 -22.1289
   -22.1133 -22.1133 -22.1131 -22.1131 -13.4062 -13.4062 -13.4060 -13.4060
    -8.2492  -8.2492  -8.2490  -8.2490  -3.7677  -3.7677  -3.7676  -3.7676
    -3.1364  -3.1364  -3.1362  -3.1362  -1.7816  -1.7816  -1.7815  -1.7815
     0.4162   0.4162   0.4163   0.4163   1.4490   1.4490   1.4491   1.4491

          k = 0.5000 0.0476 0.0000 ( 18870 PWs)   bands (ev):

   -22.1924 -22.1924 -22.1923 -22.1923 -22.1722 -22.1722 -22.1720 -22.1720
   -22.1515 -22.1515 -22.1514 -22.1514 -22.1291 -22.1291 -22.1289 -22.1289
   -22.1133 -22.1133 -22.1131 -22.1131 -13.4014 -13.4014 -13.4013 -13.4013
    -8.2384  -8.2384  -8.2383  -8.2383  -3.8039  -3.8039  -3.8038  -3.8038
    -3.1843  -3.1843  -3.1842  -3.1842  -1.7820  -1.7820  -1.7818  -1.7818
     0.3885   0.3885   0.3885   0.3885   1.5648   1.5648   1.5649   1.5649

          k = 0.5000 0.0715 0.0000 ( 18870 PWs)   bands (ev):

   -22.1929 -22.1929 -22.1927 -22.1927 -22.1720 -22.1720 -22.1718 -22.1718
   -22.1514 -22.1514 -22.1513 -22.1513 -22.1291 -22.1291 -22.1289 -22.1289
   -22.1133 -22.1133 -22.1131 -22.1131 -13.3937 -13.3937 -13.3935 -13.3935
    -8.2205  -8.2205  -8.2204  -8.2204  -3.8691  -3.8691  -3.8690  -3.8690
    -3.2453  -3.2453  -3.2452  -3.2452  -1.8016  -1.8016  -1.8015  -1.8015
     0.3824   0.3824   0.3824   0.3824   1.7155   1.7155   1.7156   1.7156

          k = 0.5000 0.0953 0.0000 ( 18882 PWs)   bands (ev):

   -22.1935 -22.1935 -22.1933 -22.1933 -22.1716 -22.1716 -22.1714 -22.1714
   -22.1513 -22.1513 -22.1511 -22.1511 -22.1291 -22.1291 -22.1289 -22.1289
   -22.1132 -22.1132 -22.1131 -22.1131 -13.3830 -13.3830 -13.3829 -13.3829
    -8.1958  -8.1958  -8.1956  -8.1956  -3.9657  -3.9657  -3.9656  -3.9656
    -3.3044  -3.3044  -3.3043  -3.3043  -1.8542  -1.8542  -1.8541  -1.8541
     0.4210   0.4210   0.4210   0.4210   1.8692   1.8692   1.8692   1.8692

          k = 0.5000 0.1191 0.0000 ( 18858 PWs)   bands (ev):

   -22.1943 -22.1943 -22.1941 -22.1941 -22.1712 -22.1712 -22.1710 -22.1710
   -22.1511 -22.1511 -22.1509 -22.1509 -22.1291 -22.1291 -22.1289 -22.1289
   -22.1132 -22.1132 -22.1130 -22.1130 -13.3697 -13.3697 -13.3695 -13.3695
    -8.1643  -8.1643  -8.1641  -8.1641  -4.0906  -4.0906  -4.0905  -4.0905
    -3.3549  -3.3549  -3.3548  -3.3548  -1.9427  -1.9427  -1.9425  -1.9425
     0.5101   0.5101   0.5101   0.5101   2.0064   2.0064   2.0065   2.0065

          k = 0.5000 0.1429 0.0000 ( 18844 PWs)   bands (ev):

   -22.1952 -22.1952 -22.1950 -22.1950 -22.1707 -22.1707 -22.1705 -22.1705
   -22.1508 -22.1508 -22.1507 -22.1507 -22.1291 -22.1291 -22.1289 -22.1289
   -22.1131 -22.1131 -22.1130 -22.1130 -13.3539 -13.3539 -13.3538 -13.3538
    -8.1263  -8.1263  -8.1262  -8.1262  -4.2356  -4.2356  -4.2355  -4.2355
    -3.3988  -3.3988  -3.3987  -3.3987  -2.0593  -2.0593  -2.0592  -2.0592
     0.6428   0.6428   0.6428   0.6428   2.1240   2.1240   2.1240   2.1240

          k = 0.5000 0.1667 0.0000 ( 18876 PWs)   bands (ev):

   -22.1962 -22.1962 -22.1960 -22.1960 -22.1701 -22.1701 -22.1699 -22.1699
   -22.1505 -22.1505 -22.1504 -22.1504 -22.1290 -22.1290 -22.1289 -22.1289
   -22.1131 -22.1131 -22.1129 -22.1129 -13.3361 -13.3361 -13.3360 -13.3360
    -8.0823  -8.0823  -8.0822  -8.0822  -4.3920  -4.3920  -4.3919  -4.3919
    -3.4421  -3.4421  -3.4421  -3.4421  -2.1916  -2.1916  -2.1915  -2.1915
     0.8067   0.8067   0.8067   0.8067   2.2295   2.2295   2.2295   2.2295

          k = 0.5000 0.1905 0.0000 ( 18884 PWs)   bands (ev):

   -22.1972 -22.1972 -22.1971 -22.1971 -22.1696 -22.1696 -22.1694 -22.1694
   -22.1502 -22.1502 -22.1501 -22.1501 -22.1290 -22.1290 -22.1289 -22.1289
   -22.1130 -22.1130 -22.1129 -22.1129 -13.3166 -13.3166 -13.3164 -13.3164
    -8.0327  -8.0327  -8.0326  -8.0326  -4.5524  -4.5524  -4.5523  -4.5523
    -3.4918  -3.4918  -3.4917  -3.4917  -2.3259  -2.3259  -2.3258  -2.3258
     0.9889   0.9889   0.9889   0.9889   2.3310   2.3310   2.3310   2.3310

          k = 0.5000 0.2144 0.0000 ( 18886 PWs)   bands (ev):

   -22.1984 -22.1984 -22.1982 -22.1982 -22.1690 -22.1690 -22.1688 -22.1688
   -22.1499 -22.1499 -22.1498 -22.1498 -22.1289 -22.1289 -22.1288 -22.1288
   -22.1129 -22.1129 -22.1128 -22.1128 -13.2958 -13.2958 -13.2957 -13.2957
    -7.9782  -7.9782  -7.9781  -7.9781  -4.7113  -4.7113  -4.7112  -4.7112
    -3.5541  -3.5541  -3.5541  -3.5541  -2.4504  -2.4504  -2.4503  -2.4503
     1.1782   1.1782   1.1782   1.1782   2.4338   2.4338   2.4338   2.4338

          k = 0.5000 0.2382 0.0000 ( 18882 PWs)   bands (ev):

   -22.1995 -22.1995 -22.1993 -22.1993 -22.1685 -22.1685 -22.1683 -22.1683
   -22.1495 -22.1495 -22.1494 -22.1494 -22.1289 -22.1289 -22.1288 -22.1288
   -22.1129 -22.1129 -22.1127 -22.1127 -13.2743 -13.2743 -13.2741 -13.2741
    -7.9195  -7.9195  -7.9194  -7.9194  -4.8649  -4.8649  -4.8649  -4.8649
    -3.6337  -3.6337  -3.6337  -3.6337  -2.5559  -2.5559  -2.5558  -2.5558
     1.3654   1.3654   1.3654   1.3654   2.5396   2.5396   2.5397   2.5397

          k = 0.5000 0.2620 0.0000 ( 18882 PWs)   bands (ev):

   -22.2006 -22.2006 -22.2005 -22.2005 -22.1680 -22.1680 -22.1678 -22.1678
   -22.1492 -22.1492 -22.1490 -22.1490 -22.1288 -22.1288 -22.1287 -22.1287
   -22.1128 -22.1128 -22.1127 -22.1127 -13.2524 -13.2524 -13.2523 -13.2523
    -7.8576  -7.8576  -7.8575  -7.8575  -5.0102  -5.0102  -5.0102  -5.0102
    -3.7317  -3.7317  -3.7317  -3.7317  -2.6378  -2.6378  -2.6377  -2.6377
     1.5436   1.5436   1.5436   1.5436   2.6477   2.6477   2.6478   2.6478

          k = 0.5000 0.2858 0.0000 ( 18878 PWs)   bands (ev):

   -22.2017 -22.2017 -22.2015 -22.2015 -22.1676 -22.1676 -22.1674 -22.1674
   -22.1488 -22.1488 -22.1487 -22.1487 -22.1287 -22.1287 -22.1286 -22.1286
   -22.1128 -22.1128 -22.1126 -22.1126 -13.2309 -13.2309 -13.2307 -13.2307
    -7.7937  -7.7937  -7.7936  -7.7936  -5.1449  -5.1449  -5.1449  -5.1449
    -3.8448  -3.8448  -3.8447  -3.8447  -2.6964  -2.6964  -2.6963  -2.6963
     1.7079   1.7079   1.7079   1.7079   2.7551   2.7551   2.7552   2.7552

          k = 0.5000 0.3096 0.0000 ( 18894 PWs)   bands (ev):

   -22.2027 -22.2027 -22.2026 -22.2026 -22.1672 -22.1672 -22.1670 -22.1670
   -22.1484 -22.1484 -22.1483 -22.1483 -22.1286 -22.1286 -22.1285 -22.1285
   -22.1127 -22.1127 -22.1126 -22.1126 -13.2101 -13.2101 -13.2100 -13.2100
    -7.7293  -7.7293  -7.7292  -7.7292  -5.2672  -5.2672  -5.2672  -5.2672
    -3.9667  -3.9667  -3.9666  -3.9666  -2.7354  -2.7354  -2.7353  -2.7353
     1.8553   1.8553   1.8554   1.8554   2.8575   2.8575   2.8575   2.8575

          k = 0.5000 0.3334 0.0000 ( 18898 PWs)   bands (ev):

   -22.2037 -22.2037 -22.2035 -22.2035 -22.1668 -22.1668 -22.1666 -22.1666
   -22.1481 -22.1481 -22.1480 -22.1480 -22.1285 -22.1285 -22.1284 -22.1284
   -22.1127 -22.1127 -22.1125 -22.1125 -13.1908 -13.1908 -13.1906 -13.1906
    -7.6662  -7.6662  -7.6661  -7.6661  -5.3757  -5.3757  -5.3756  -5.3756
    -4.0900  -4.0900  -4.0900  -4.0900  -2.7596  -2.7596  -2.7596  -2.7596
     1.9845   1.9845   1.9846   1.9846   2.9505   2.9505   2.9506   2.9506

          k = 0.5000 0.3573 0.0000 ( 18900 PWs)   bands (ev):

   -22.2046 -22.2046 -22.2044 -22.2044 -22.1665 -22.1665 -22.1664 -22.1664
   -22.1477 -22.1477 -22.1476 -22.1476 -22.1284 -22.1284 -22.1283 -22.1283
   -22.1126 -22.1126 -22.1125 -22.1125 -13.1733 -13.1733 -13.1732 -13.1732
    -7.6064  -7.6064  -7.6063  -7.6063  -5.4690  -5.4690  -5.4690  -5.4690
    -4.2078  -4.2078  -4.2078  -4.2078  -2.7737  -2.7737  -2.7737  -2.7737
     2.0948   2.0948   2.0949   2.0949   3.0317   3.0317   3.0318   3.0318

          k = 0.5000 0.3811 0.0000 ( 18888 PWs)   bands (ev):

   -22.2053 -22.2053 -22.2051 -22.2051 -22.1663 -22.1663 -22.1661 -22.1661
   -22.1475 -22.1475 -22.1474 -22.1474 -22.1283 -22.1283 -22.1282 -22.1282
   -22.1126 -22.1126 -22.1125 -22.1125 -13.1582 -13.1582 -13.1581 -13.1581
    -7.5524  -7.5524  -7.5523  -7.5523  -5.5463  -5.5463  -5.5463  -5.5463
    -4.3138  -4.3138  -4.3138  -4.3138  -2.7811  -2.7811  -2.7811  -2.7811
     2.1858   2.1858   2.1858   2.1858   3.1006   3.1006   3.1007   3.1007

          k = 0.5000 0.4049 0.0000 ( 18882 PWs)   bands (ev):

   -22.2058 -22.2058 -22.2057 -22.2057 -22.1661 -22.1661 -22.1660 -22.1660
   -22.1472 -22.1472 -22.1471 -22.1471 -22.1282 -22.1282 -22.1281 -22.1281
   -22.1126 -22.1126 -22.1124 -22.1124 -13.1460 -13.1460 -13.1459 -13.1459
    -7.5066  -7.5066  -7.5065  -7.5065  -5.6070  -5.6070  -5.6070  -5.6070
    -4.4026  -4.4026  -4.4026  -4.4026  -2.7846  -2.7846  -2.7846  -2.7846
     2.2568   2.2568   2.2569   2.2569   3.1577   3.1577   3.1578   3.1578

          k = 0.5000 0.4287 0.0000 ( 18890 PWs)   bands (ev):

   -22.2063 -22.2063 -22.2061 -22.2061 -22.1660 -22.1660 -22.1659 -22.1659
   -22.1471 -22.1471 -22.1470 -22.1470 -22.1281 -22.1281 -22.1280 -22.1280
   -22.1125 -22.1125 -22.1124 -22.1124 -13.1370 -13.1370 -13.1369 -13.1369
    -7.4717  -7.4717  -7.4716  -7.4716  -5.6506  -5.6506  -5.6505  -5.6505
    -4.4697  -4.4697  -4.4697  -4.4697  -2.7859  -2.7859  -2.7858  -2.7858
     2.3076   2.3076   2.3076   2.3076   3.2028   3.2028   3.2029   3.2029

          k = 0.5000 0.4525 0.0000 ( 18888 PWs)   bands (ev):

   -22.2065 -22.2065 -22.2064 -22.2064 -22.1660 -22.1660 -22.1658 -22.1658
   -22.1470 -22.1470 -22.1469 -22.1469 -22.1281 -22.1281 -22.1280 -22.1280
   -22.1125 -22.1125 -22.1124 -22.1124 -13.1315 -13.1315 -13.1314 -13.1314
    -7.4497  -7.4497  -7.4496  -7.4496  -5.6768  -5.6768  -5.6767  -5.6767
    -4.5115  -4.5115  -4.5115  -4.5115  -2.7862  -2.7862  -2.7862  -2.7862
     2.3380   2.3380   2.3380   2.3380   3.2330   3.2330   3.2331   3.2331

          k = 0.5000 0.4764 0.0000 ( 18884 PWs)   bands (ev):

   -22.2066 -22.2066 -22.2064 -22.2064 -22.1659 -22.1659 -22.1658 -22.1658
   -22.1469 -22.1469 -22.1468 -22.1468 -22.1280 -22.1280 -22.1280 -22.1280
   -22.1125 -22.1125 -22.1124 -22.1124 -13.1297 -13.1297 -13.1295 -13.1295
    -7.4422  -7.4422  -7.4421  -7.4421  -5.6855  -5.6855  -5.6855  -5.6855
    -4.5257  -4.5257  -4.5257  -4.5257  -2.7862  -2.7862  -2.7862  -2.7862
     2.3481   2.3481   2.3481   2.3481   3.2439   3.2439   3.2439   3.2439

          k = 0.4750 0.4764 0.0000 ( 18888 PWs)   bands (ev):

   -22.2065 -22.2065 -22.2063 -22.2063 -22.1660 -22.1660 -22.1659 -22.1659
   -22.1469 -22.1469 -22.1468 -22.1468 -22.1280 -22.1280 -22.1280 -22.1280
   -22.1126 -22.1126 -22.1124 -22.1124 -13.1325 -13.1325 -13.1324 -13.1324
    -7.4469  -7.4469  -7.4468  -7.4468  -5.6827  -5.6827  -5.6827  -5.6827
    -4.5058  -4.5058  -4.5058  -4.5058  -2.7867  -2.7867  -2.7867  -2.7867
     2.3391   2.3391   2.3391   2.3391   3.2358   3.2358   3.2359   3.2359

          k = 0.4500 0.4764 0.0000 ( 18928 PWs)   bands (ev):

   -22.2061 -22.2061 -22.2060 -22.2060 -22.1664 -22.1664 -22.1662 -22.1662
   -22.1469 -22.1469 -22.1468 -22.1468 -22.1280 -22.1280 -22.1280 -22.1280
   -22.1127 -22.1127 -22.1125 -22.1125 -13.1410 -13.1410 -13.1409 -13.1409
    -7.4613  -7.4613  -7.4612  -7.4612  -5.6726  -5.6726  -5.6725  -5.6725
    -4.4482  -4.4482  -4.4482  -4.4482  -2.7881  -2.7881  -2.7881  -2.7881
     2.3118   2.3118   2.3119   2.3119   3.2148   3.2148   3.2148   3.2148

          k = 0.4250 0.4764 0.0000 ( 18928 PWs)   bands (ev):

   -22.2055 -22.2055 -22.2054 -22.2054 -22.1669 -22.1669 -22.1667 -22.1667
   -22.1468 -22.1468 -22.1467 -22.1467 -22.1280 -22.1280 -22.1280 -22.1280
   -22.1128 -22.1128 -22.1127 -22.1127 -13.1548 -13.1548 -13.1547 -13.1547
    -7.4854  -7.4854  -7.4853  -7.4853  -5.6508  -5.6508  -5.6507  -5.6507
    -4.3585  -4.3585  -4.3585  -4.3585  -2.7891  -2.7891  -2.7891  -2.7891
     2.2661   2.2661   2.2662   2.2662   3.1863   3.1863   3.1864   3.1864

          k = 0.4000 0.4764 0.0000 ( 18940 PWs)   bands (ev):

   -22.2047 -22.2047 -22.2046 -22.2046 -22.1676 -22.1676 -22.1674 -22.1674
   -22.1468 -22.1468 -22.1467 -22.1467 -22.1280 -22.1280 -22.1280 -22.1280
   -22.1131 -22.1131 -22.1130 -22.1130 -13.1735 -13.1735 -13.1733 -13.1733
    -7.5192  -7.5192  -7.5191  -7.5191  -5.6125  -5.6125  -5.6124  -5.6124
    -4.2441  -4.2441  -4.2440  -4.2440  -2.7879  -2.7879  -2.7879  -2.7879
     2.2022   2.2022   2.2022   2.2022   3.1531   3.1531   3.1532   3.1532

          k = 0.3750 0.4764 0.0000 ( 18954 PWs)   bands (ev):

   -22.2037 -22.2037 -22.2035 -22.2035 -22.1685 -22.1685 -22.1683 -22.1683
   -22.1467 -22.1467 -22.1466 -22.1466 -22.1280 -22.1280 -22.1279 -22.1279
   -22.1134 -22.1134 -22.1133 -22.1133 -13.1964 -13.1964 -13.1963 -13.1963
    -7.5618  -7.5618  -7.5617  -7.5617  -5.5540  -5.5540  -5.5539  -5.5539
    -4.1131  -4.1131  -4.1130  -4.1130  -2.7814  -2.7814  -2.7814  -2.7814
     2.1211   2.1211   2.1212   2.1212   3.1129   3.1129   3.1130   3.1130

          k = 0.3500 0.4764 0.0000 ( 18974 PWs)   bands (ev):

   -22.2025 -22.2025 -22.2023 -22.2023 -22.1695 -22.1695 -22.1693 -22.1693
   -22.1466 -22.1466 -22.1465 -22.1465 -22.1279 -22.1279 -22.1278 -22.1278
   -22.1137 -22.1137 -22.1136 -22.1136 -13.2229 -13.2229 -13.2227 -13.2227
    -7.6120  -7.6120  -7.6119  -7.6119  -5.4732  -5.4732  -5.4731  -5.4731
    -3.9745  -3.9745  -3.9745  -3.9745  -2.7650  -2.7650  -2.7650  -2.7650
     2.0244   2.0244   2.0245   2.0245   3.0596   3.0596   3.0597   3.0597

          k = 0.3250 0.4764 0.0000 ( 18970 PWs)   bands (ev):

   -22.2012 -22.2012 -22.2010 -22.2010 -22.1707 -22.1707 -22.1705 -22.1705
   -22.1465 -22.1465 -22.1464 -22.1464 -22.1278 -22.1278 -22.1277 -22.1277
   -22.1141 -22.1141 -22.1140 -22.1140 -13.2520 -13.2520 -13.2519 -13.2519
    -7.6680  -7.6680  -7.6679  -7.6679  -5.3698  -5.3698  -5.3697  -5.3697
    -3.8383  -3.8383  -3.8383  -3.8383  -2.7323  -2.7323  -2.7323  -2.7323
     1.9135   1.9135   1.9136   1.9136   2.9863   2.9863   2.9864   2.9864

          k = 0.3000 0.4764 0.0000 ( 18986 PWs)   bands (ev):

   -22.1997 -22.1997 -22.1995 -22.1995 -22.1720 -22.1720 -22.1719 -22.1719
   -22.1465 -22.1465 -22.1464 -22.1464 -22.1276 -22.1276 -22.1275 -22.1275
   -22.1145 -22.1145 -22.1144 -22.1144 -13.2831 -13.2831 -13.2829 -13.2829
    -7.7276  -7.7276  -7.7275  -7.7275  -5.2448  -5.2448  -5.2447  -5.2447
    -3.7153  -3.7153  -3.7153  -3.7153  -2.6754  -2.6754  -2.6753  -2.6753
     1.7889   1.7889   1.7889   1.7889   2.8887   2.8887   2.8888   2.8888

          k = 0.2750 0.4764 0.0000 ( 18970 PWs)   bands (ev):

   -22.1981 -22.1981 -22.1980 -22.1980 -22.1735 -22.1735 -22.1733 -22.1733
   -22.1465 -22.1465 -22.1463 -22.1463 -22.1274 -22.1274 -22.1273 -22.1273
   -22.1150 -22.1150 -22.1149 -22.1149 -13.3151 -13.3151 -13.3150 -13.3150
    -7.7889  -7.7889  -7.7887  -7.7887  -5.0999  -5.0999  -5.0998  -5.0998
    -3.6153  -3.6153  -3.6152  -3.6152  -2.5873  -2.5873  -2.5872  -2.5872
     1.6503   1.6503   1.6504   1.6504   2.7689   2.7689   2.7689   2.7689

          k = 0.2500 0.4764 0.0000 ( 18992 PWs)   bands (ev):

   -22.1966 -22.1966 -22.1964 -22.1964 -22.1749 -22.1749 -22.1748 -22.1748
   -22.1465 -22.1465 -22.1463 -22.1463 -22.1271 -22.1271 -22.1270 -22.1270
   -22.1154 -22.1154 -22.1153 -22.1153 -13.3474 -13.3474 -13.3472 -13.3472
    -7.8498  -7.8498  -7.8497  -7.8497  -4.9375  -4.9375  -4.9374  -4.9374
    -3.5429  -3.5429  -3.5428  -3.5428  -2.4661  -2.4661  -2.4660  -2.4660
     1.4976   1.4976   1.4976   1.4976   2.6344   2.6344   2.6345   2.6345

          k = 0.2250 0.4764 0.0000 ( 18988 PWs)   bands (ev):

   -22.1950 -22.1950 -22.1948 -22.1948 -22.1764 -22.1764 -22.1763 -22.1763
   -22.1465 -22.1465 -22.1464 -22.1464 -22.1267 -22.1267 -22.1266 -22.1266
   -22.1159 -22.1159 -22.1158 -22.1158 -13.3791 -13.3791 -13.3789 -13.3789
    -7.9088  -7.9088  -7.9087  -7.9087  -4.7603  -4.7603  -4.7602  -4.7602
    -3.4959  -3.4959  -3.4958  -3.4958  -2.3174  -2.3174  -2.3173  -2.3173
     1.3315   1.3315   1.3315   1.3315   2.4957   2.4957   2.4957   2.4957

          k = 0.2000 0.4764 0.0000 ( 19024 PWs)   bands (ev):

   -22.1934 -22.1934 -22.1932 -22.1932 -22.1779 -22.1779 -22.1777 -22.1777
   -22.1466 -22.1466 -22.1464 -22.1464 -22.1263 -22.1263 -22.1262 -22.1262
   -22.1164 -22.1164 -22.1163 -22.1163 -13.4094 -13.4094 -13.4093 -13.4093
    -7.9644  -7.9644  -7.9643  -7.9643  -4.5717  -4.5717  -4.5716  -4.5716
    -3.4677  -3.4677  -3.4676  -3.4676  -2.1521  -2.1521  -2.1519  -2.1519
     1.1558   1.1558   1.1558   1.1558   2.3617   2.3617   2.3617   2.3617

          k = 0.1750 0.4764 0.0000 ( 18996 PWs)   bands (ev):

   -22.1919 -22.1919 -22.1917 -22.1917 -22.1793 -22.1793 -22.1792 -22.1792
   -22.1467 -22.1467 -22.1465 -22.1465 -22.1258 -22.1258 -22.1257 -22.1257
   -22.1169 -22.1169 -22.1168 -22.1168 -13.4378 -13.4378 -13.4377 -13.4377
    -8.0156  -8.0156  -8.0155  -8.0155  -4.3760  -4.3760  -4.3759  -4.3759
    -3.4505  -3.4505  -3.4505  -3.4505  -1.9834  -1.9834  -1.9833  -1.9833
     0.9782   0.9782   0.9783   0.9783   2.2379   2.2379   2.2379   2.2379

          k = 0.1500 0.4764 0.0000 ( 18984 PWs)   bands (ev):

   -22.1905 -22.1905 -22.1904 -22.1904 -22.1806 -22.1806 -22.1805 -22.1805
   -22.1468 -22.1468 -22.1466 -22.1466 -22.1253 -22.1253 -22.1252 -22.1252
   -22.1175 -22.1175 -22.1174 -22.1174 -13.4636 -13.4636 -13.4635 -13.4635
    -8.0615  -8.0615  -8.0614  -8.0614  -4.1792  -4.1792  -4.1790  -4.1790
    -3.4371  -3.4371  -3.4370  -3.4370  -1.8260  -1.8260  -1.8259  -1.8259
     0.8111   0.8111   0.8111   0.8111   2.1257   2.1257   2.1257   2.1257

          k = 0.1250 0.4764 0.0000 ( 18980 PWs)   bands (ev):

   -22.1893 -22.1893 -22.1891 -22.1891 -22.1818 -22.1818 -22.1816 -22.1816
   -22.1469 -22.1469 -22.1468 -22.1468 -22.1247 -22.1247 -22.1246 -22.1246
   -22.1180 -22.1180 -22.1179 -22.1179 -13.4863 -13.4863 -13.4862 -13.4862
    -8.1013  -8.1013  -8.1012  -8.1012  -3.9907  -3.9907  -3.9906  -3.9906
    -3.4191  -3.4191  -3.4190  -3.4190  -1.6954  -1.6954  -1.6953  -1.6953
     0.6702   0.6702   0.6703   0.6703   2.0233   2.0233   2.0234   2.0234

          k = 0.1000 0.4764 0.0000 ( 18960 PWs)   bands (ev):

   -22.1883 -22.1883 -22.1881 -22.1881 -22.1827 -22.1827 -22.1826 -22.1826
   -22.1470 -22.1470 -22.1469 -22.1469 -22.1241 -22.1241 -22.1240 -22.1240
   -22.1185 -22.1185 -22.1184 -22.1184 -13.5055 -13.5055 -13.5053 -13.5053
    -8.1346  -8.1346  -8.1345  -8.1345  -3.8271  -3.8271  -3.8270  -3.8270
    -3.3843  -3.3843  -3.3842  -3.3842  -1.6064  -1.6064  -1.6062  -1.6062
     0.5721   0.5721   0.5722   0.5722   1.9270   1.9270   1.9270   1.9270

          k = 0.0750 0.4764 0.0000 ( 18968 PWs)   bands (ev):

   -22.1875 -22.1875 -22.1874 -22.1874 -22.1834 -22.1834 -22.1833 -22.1833
   -22.1472 -22.1472 -22.1470 -22.1470 -22.1236 -22.1236 -22.1235 -22.1235
   -22.1190 -22.1190 -22.1189 -22.1189 -13.5207 -13.5207 -13.5206 -13.5206
    -8.1608  -8.1608  -8.1607  -8.1607  -3.7107  -3.7107  -3.7107  -3.7107
    -3.3186  -3.3186  -3.3185  -3.3185  -1.5666  -1.5666  -1.5664  -1.5664
     0.5263   0.5263   0.5264   0.5264   1.8329   1.8329   1.8330   1.8330

          k = 0.0500 0.4764 0.0000 ( 18950 PWs)   bands (ev):

   -22.1871 -22.1871 -22.1869 -22.1869 -22.1839 -22.1839 -22.1837 -22.1837
   -22.1472 -22.1472 -22.1471 -22.1471 -22.1231 -22.1231 -22.1230 -22.1230
   -22.1195 -22.1195 -22.1194 -22.1194 -13.5318 -13.5318 -13.5317 -13.5317
    -8.1798  -8.1798  -8.1796  -8.1796  -3.6486  -3.6486  -3.6485  -3.6485
    -3.2281  -3.2281  -3.2280  -3.2280  -1.5685  -1.5685  -1.5684  -1.5684
     0.5265   0.5265   0.5266   0.5266   1.7435   1.7435   1.7436   1.7436

          k = 0.0250 0.4764 0.0000 ( 18942 PWs)   bands (ev):

   -22.1869 -22.1869 -22.1867 -22.1867 -22.1841 -22.1841 -22.1839 -22.1839
   -22.1473 -22.1473 -22.1471 -22.1471 -22.1227 -22.1227 -22.1226 -22.1226
   -22.1199 -22.1199 -22.1197 -22.1197 -13.5386 -13.5386 -13.5384 -13.5384
    -8.1912  -8.1912  -8.1911  -8.1911  -3.6224  -3.6224  -3.6223  -3.6223
    -3.1496  -3.1496  -3.1495  -3.1495  -1.5886  -1.5886  -1.5885  -1.5885
     0.5482   0.5482   0.5483   0.5483   1.6733   1.6733   1.6734   1.6734

          k = 0.0000 0.4764 0.0000 ( 18936 PWs)   bands (ev):

   -22.1868 -22.1868 -22.1866 -22.1866 -22.1841 -22.1841 -22.1839 -22.1839
   -22.1473 -22.1473 -22.1471 -22.1471 -22.1226 -22.1226 -22.1224 -22.1224
   -22.1200 -22.1200 -22.1199 -22.1199 -13.5408 -13.5408 -13.5407 -13.5407
    -8.1950  -8.1950  -8.1949  -8.1949  -3.6153  -3.6153  -3.6152  -3.6152
    -3.1188  -3.1188  -3.1186  -3.1186  -1.5995  -1.5995  -1.5994  -1.5994
     0.5605   0.5605   0.5606   0.5606   1.6457   1.6457   1.6458   1.6458

          k = 0.0000 0.4525 0.0000 ( 18944 PWs)   bands (ev):

   -22.1873 -22.1873 -22.1862 -22.1862 -22.1843 -22.1843 -22.1837 -22.1837
   -22.1483 -22.1483 -22.1463 -22.1463 -22.1231 -22.1231 -22.1219 -22.1219
   -22.1205 -22.1205 -22.1193 -22.1193 -13.6070 -13.6070 -13.4771 -13.4771
    -8.2582  -8.2582  -8.1176  -8.1176  -3.7048  -3.7048  -3.5329  -3.5329
    -3.1918  -3.1918  -3.0527  -3.0527  -1.7142  -1.7142  -1.4852  -1.4852
     0.4231   0.4231   0.7133   0.7133   1.5827   1.5827   1.7312   1.7312

          k = 0.0000 0.4287 0.0000 ( 18964 PWs)   bands (ev):

   -22.1879 -22.1879 -22.1858 -22.1858 -22.1844 -22.1844 -22.1834 -22.1834
   -22.1494 -22.1494 -22.1455 -22.1455 -22.1236 -22.1236 -22.1214 -22.1214
   -22.1211 -22.1211 -22.1188 -22.1188 -13.6750 -13.6750 -13.4168 -13.4168
    -8.3069  -8.3069  -8.0269  -8.0269  -3.7983  -3.7983  -3.4619  -3.4619
    -3.2704  -3.2704  -2.9951  -2.9951  -1.8210  -1.8210  -1.3825  -1.3825
     0.3100   0.3100   0.8747   0.8747   1.5434   1.5434   1.8373   1.8373

          k = 0.0000 0.4049 0.0000 ( 18988 PWs)   bands (ev):

   -22.1885 -22.1885 -22.1854 -22.1854 -22.1844 -22.1844 -22.1829 -22.1829
   -22.1507 -22.1507 -22.1448 -22.1448 -22.1242 -22.1242 -22.1217 -22.1217
   -22.1209 -22.1209 -22.1182 -22.1182 -13.7441 -13.7441 -13.3605 -13.3605
    -8.3404  -8.3404  -7.9236  -7.9236  -3.8935  -3.8935  -3.4074  -3.4074
    -3.3530  -3.3530  -2.9470  -2.9470  -1.9118  -1.9118  -1.3048  -1.3048
     0.2334   0.2334   1.0388   1.0388   1.5287   1.5287   1.8131   1.8131

          k = 0.0000 0.3811 0.0000 ( 18992 PWs)   bands (ev):

   -22.1891 -22.1891 -22.1851 -22.1851 -22.1844 -22.1844 -22.1824 -22.1824
   -22.1520 -22.1520 -22.1442 -22.1442 -22.1248 -22.1248 -22.1222 -22.1222
   -22.1203 -22.1203 -22.1175 -22.1175 -13.8132 -13.8132 -13.3089 -13.3089
    -8.3587  -8.3587  -7.8087  -7.8087  -3.9886  -3.9886  -3.4379  -3.4379
    -3.3751  -3.3751  -2.9091  -2.9091  -1.9799  -1.9799  -1.2667  -1.2667
     0.2068   0.2068   1.1966   1.1966   1.5391   1.5391   1.6851   1.6851

          k = 0.0000 0.3573 0.0000 ( 19008 PWs)   bands (ev):

   -22.1898 -22.1898 -22.1849 -22.1849 -22.1843 -22.1843 -22.1818 -22.1818
   -22.1534 -22.1534 -22.1436 -22.1436 -22.1254 -22.1254 -22.1227 -22.1227
   -22.1199 -22.1199 -22.1169 -22.1169 -13.8818 -13.8818 -13.2623 -13.2623
    -8.3618  -8.3618  -7.6831  -7.6831  -4.0821  -4.0821  -3.5238  -3.5238
    -3.3697  -3.3697  -2.8816  -2.8816  -2.0199  -2.0199  -1.2780  -1.2780
     0.2388   0.2388   1.3178   1.3178   1.5745   1.5745   1.5979   1.5979

          k = 0.0000 0.3334 0.0000 ( 18996 PWs)   bands (ev):

   -22.1904 -22.1904 -22.1847 -22.1847 -22.1842 -22.1842 -22.1812 -22.1812
   -22.1549 -22.1549 -22.1432 -22.1432 -22.1259 -22.1259 -22.1231 -22.1231
   -22.1194 -22.1194 -22.1163 -22.1163 -13.9491 -13.9491 -13.2211 -13.2211
    -8.3501  -8.3501  -7.5480  -7.5480  -4.1730  -4.1730  -3.6093  -3.6093
    -3.3930  -3.3930  -2.8641  -2.8641  -2.0303  -2.0303  -1.3371  -1.3371
     0.3272   0.3272   1.3141   1.3141   1.6342   1.6342   1.6369   1.6369

          k = 0.0000 0.3096 0.0000 ( 18998 PWs)   bands (ev):

   -22.1911 -22.1911 -22.1846 -22.1846 -22.1840 -22.1840 -22.1805 -22.1805
   -22.1565 -22.1565 -22.1429 -22.1429 -22.1265 -22.1265 -22.1235 -22.1235
   -22.1190 -22.1190 -22.1157 -22.1157 -14.0143 -14.0143 -13.1853 -13.1853
    -8.3243  -8.3243  -7.4044  -7.4044  -4.2605  -4.2605  -3.6931  -3.6931
    -3.4427  -3.4427  -2.8560  -2.8560  -2.0135  -2.0135  -1.4342  -1.4342
     0.4610   0.4610   1.2220   1.2220   1.7168   1.7168   1.7620   1.7620

          k = 0.0000 0.2858 0.0000 ( 18992 PWs)   bands (ev):

   -22.1917 -22.1917 -22.1846 -22.1846 -22.1838 -22.1838 -22.1799 -22.1799
   -22.1580 -22.1580 -22.1426 -22.1426 -22.1270 -22.1270 -22.1239 -22.1239
   -22.1185 -22.1185 -22.1152 -22.1152 -14.0770 -14.0770 -13.1549 -13.1549
    -8.2853  -8.2853  -7.2536  -7.2536  -4.3438  -4.3438  -3.7742  -3.7742
    -3.5135  -3.5135  -2.8560  -2.8560  -1.9754  -1.9754  -1.5574  -1.5574
     0.6276   0.6276   1.1159   1.1159   1.8203   1.8203   1.8945   1.8945

          k = 0.0000 0.2620 0.0000 ( 18982 PWs)   bands (ev):

   -22.1924 -22.1924 -22.1846 -22.1846 -22.1835 -22.1835 -22.1791 -22.1791
   -22.1596 -22.1596 -22.1424 -22.1424 -22.1275 -22.1275 -22.1242 -22.1242
   -22.1182 -22.1182 -22.1146 -22.1146 -14.1365 -14.1365 -13.1296 -13.1296
    -8.2346  -8.2346  -7.0970  -7.0970  -4.4225  -4.4225  -3.8517  -3.8517
    -3.5992  -3.5992  -2.8630  -2.8630  -1.9228  -1.9228  -1.6972  -1.6972
     0.8167   0.8167   1.0117   1.0117   1.9425   1.9425   2.0134   2.0134

          k = 0.0000 0.2382 0.0000 ( 18952 PWs)   bands (ev):

   -22.1930 -22.1930 -22.1847 -22.1847 -22.1832 -22.1832 -22.1784 -22.1784
   -22.1612 -22.1612 -22.1422 -22.1422 -22.1280 -22.1280 -22.1245 -22.1245
   -22.1178 -22.1178 -22.1140 -22.1140 -14.1923 -14.1923 -13.1090 -13.1090
    -8.1738  -8.1738  -6.9360  -6.9360  -4.4961  -4.4961  -3.9247  -3.9247
    -3.6943  -3.6943  -2.8752  -2.8752  -1.8617  -1.8617  -1.8470  -1.8470
     0.9131   0.9131   1.0208   1.0208   2.0805   2.0805   2.1098   2.1098

          k = 0.0000 0.2144 0.0000 ( 18968 PWs)   bands (ev):

   -22.1935 -22.1935 -22.1849 -22.1849 -22.1828 -22.1828 -22.1777 -22.1777
   -22.1627 -22.1627 -22.1421 -22.1421 -22.1285 -22.1285 -22.1248 -22.1248
   -22.1175 -22.1175 -22.1135 -22.1135 -14.2440 -14.2440 -13.0928 -13.0928
    -8.1050  -8.1050  -6.7725  -6.7725  -4.5644  -4.5644  -3.9926  -3.9926
    -3.7941  -3.7941  -2.8912  -2.8912  -2.0020  -2.0020  -1.7971  -1.7971
     0.8218   0.8218   1.2340   1.2340   2.1780   2.1780   2.2310   2.2310

          k = 0.0000 0.1905 0.0000 ( 18960 PWs)   bands (ev):

   -22.1941 -22.1941 -22.1851 -22.1851 -22.1825 -22.1825 -22.1771 -22.1771
   -22.1641 -22.1641 -22.1420 -22.1420 -22.1289 -22.1289 -22.1250 -22.1250
   -22.1172 -22.1172 -22.1130 -22.1130 -14.2912 -14.2912 -13.0803 -13.0803
    -8.0305  -8.0305  -6.6083  -6.6083  -4.6269  -4.6269  -4.0547  -4.0547
    -3.8949  -3.8949  -2.9095  -2.9095  -2.1586  -2.1586  -1.7327  -1.7327
     0.7385   0.7385   1.4516   1.4516   2.2160   2.2160   2.3905   2.3905

          k = 0.0000 0.1667 0.0000 ( 18972 PWs)   bands (ev):

   -22.1946 -22.1946 -22.1853 -22.1853 -22.1822 -22.1822 -22.1764 -22.1764
   -22.1655 -22.1655 -22.1420 -22.1420 -22.1293 -22.1293 -22.1252 -22.1252
   -22.1169 -22.1169 -22.1126 -22.1126 -14.3336 -14.3336 -13.0710 -13.0710
    -7.9532  -7.9532  -6.4460  -6.4460  -4.6838  -4.6838  -4.1106  -4.1106
    -3.9937  -3.9937  -2.9288  -2.9288  -2.3133  -2.3133  -1.6713  -1.6713
     0.6637   0.6637   1.6689   1.6689   2.2256   2.2256   2.5546   2.5546

          k = 0.0000 0.1429 0.0000 ( 18986 PWs)   bands (ev):

   -22.1950 -22.1950 -22.1855 -22.1855 -22.1819 -22.1819 -22.1758 -22.1758
   -22.1667 -22.1667 -22.1419 -22.1419 -22.1297 -22.1297 -22.1254 -22.1254
   -22.1167 -22.1167 -22.1121 -22.1121 -14.3709 -14.3709 -13.0643 -13.0643
    -7.8759  -7.8759  -6.2885  -6.2885  -4.7347  -4.7347  -4.1598  -4.1598
    -4.0877  -4.0877  -2.9479  -2.9479  -2.4629  -2.4629  -1.6151  -1.6151
     0.5980   0.5980   1.8809   1.8809   2.2127   2.2127   2.7187   2.7187

          k = 0.0000 0.1191 0.0000 ( 18970 PWs)   bands (ev):

   -22.1954 -22.1954 -22.1857 -22.1857 -22.1816 -22.1816 -22.1753 -22.1753
   -22.1678 -22.1678 -22.1419 -22.1419 -22.1300 -22.1300 -22.1255 -22.1255
   -22.1165 -22.1165 -22.1118 -22.1118 -14.4028 -14.4028 -13.0596 -13.0596
    -7.8020  -7.8020  -6.1394  -6.1394  -4.7798  -4.7798  -4.2020  -4.2020
    -4.1740  -4.1740  -2.9657  -2.9657  -2.6033  -2.6033  -1.5657  -1.5657
     0.5418   0.5418   2.0813   2.0813   2.1853   2.1853   2.8370   2.8370

          k = 0.0000 0.0953 0.0000 ( 18950 PWs)   bands (ev):

   -22.1957 -22.1957 -22.1859 -22.1859 -22.1814 -22.1814 -22.1749 -22.1749
   -22.1687 -22.1687 -22.1419 -22.1419 -22.1302 -22.1302 -22.1256 -22.1256
   -22.1163 -22.1163 -22.1115 -22.1115 -14.4292 -14.4292 -13.0565 -13.0565
    -7.7348  -7.7348  -6.0034  -6.0034  -4.8188  -4.8188  -4.2501  -4.2501
    -4.2369  -4.2369  -2.9814  -2.9814  -2.7301  -2.7301  -1.5240  -1.5240
     0.4953   0.4953   2.1516   2.1516   2.2615   2.2615   2.8078   2.8078

          k = 0.0000 0.0715 0.0000 ( 18936 PWs)   bands (ev):

   -22.1959 -22.1959 -22.1861 -22.1861 -22.1812 -22.1812 -22.1745 -22.1745
   -22.1694 -22.1694 -22.1419 -22.1419 -22.1304 -22.1304 -22.1257 -22.1257
   -22.1162 -22.1162 -22.1112 -22.1112 -14.4499 -14.4499 -13.0546 -13.0546
    -7.6779  -7.6779  -5.8861  -5.8861  -4.8514  -4.8514  -4.3130  -4.3130
    -4.2643  -4.2643  -2.9944  -2.9944  -2.8379  -2.8379  -1.4910  -1.4910
     0.4589   0.4589   2.1184   2.1184   2.4099   2.4099   2.7938   2.7938

          k = 0.0000 0.0476 0.0000 ( 18932 PWs)   bands (ev):

   -22.1961 -22.1961 -22.1862 -22.1862 -22.1811 -22.1811 -22.1743 -22.1743
   -22.1700 -22.1700 -22.1419 -22.1419 -22.1306 -22.1306 -22.1257 -22.1257
   -22.1161 -22.1161 -22.1110 -22.1110 -14.4648 -14.4648 -13.0534 -13.0534
    -7.6345  -7.6345  -5.7943  -5.7943  -4.8767  -4.8767  -4.3602  -4.3602
    -4.2840  -4.2840  -3.0039  -3.0039  -2.9209  -2.9209  -1.4671  -1.4671
     0.4327   0.4327   2.0911   2.0911   2.5121   2.5121   2.7999   2.7999

          k = 0.0000 0.0238 0.0000 ( 18926 PWs)   bands (ev):

   -22.1962 -22.1962 -22.1863 -22.1863 -22.1810 -22.1810 -22.1741 -22.1741
   -22.1703 -22.1703 -22.1419 -22.1419 -22.1307 -22.1307 -22.1257 -22.1257
   -22.1161 -22.1161 -22.1109 -22.1109 -14.4737 -14.4737 -13.0529 -13.0529
    -7.6072  -7.6072  -5.7352  -5.7352  -4.8931  -4.8931  -4.3895  -4.3895
    -4.2958  -4.2958  -3.0098  -3.0098  -2.9735  -2.9735  -1.4527  -1.4527
     0.4169   0.4169   2.0734   2.0734   2.5632   2.5632   2.8203   2.8203

          k = 0.0000 0.0000 0.0000 ( 18903 PWs)   bands (ev):

   -22.1963 -22.1963 -22.1863 -22.1863 -22.1809 -22.1809 -22.1741 -22.1741
   -22.1704 -22.1704 -22.1419 -22.1419 -22.1307 -22.1307 -22.1257 -22.1257
   -22.1160 -22.1160 -22.1109 -22.1109 -14.4767 -14.4767 -13.0527 -13.0527
    -7.5979  -7.5979  -5.7146  -5.7146  -4.8988  -4.8988  -4.3995  -4.3995
    -4.2998  -4.2998  -3.0118  -3.0118  -2.9916  -2.9916  -1.4479  -1.4479
     0.4116   0.4116   2.0673   2.0673   2.5770   2.5770   2.8318   2.8318

     Writing output data file ./SnS.save/
 
     init_run     :      0.98s CPU      1.10s WALL (       1 calls)
     electrons    :    335.26s CPU    341.18s WALL (       1 calls)

     Called by init_run:
     wfcinit      :      0.00s CPU      0.01s WALL (       1 calls)
     wfcinit:atom :      0.06s CPU      0.06s WALL (      81 calls)
     wfcinit:wfcr :      6.40s CPU      6.53s WALL (      81 calls)
     potinit      :      0.06s CPU      0.08s WALL (       1 calls)
     hinit0       :      0.59s CPU      0.62s WALL (       1 calls)

     Called by electrons:
     c_bands      :    335.25s CPU    341.18s WALL (       1 calls)
     v_of_rho     :      0.04s CPU      0.05s WALL (       1 calls)
     v_h          :      0.00s CPU      0.00s WALL (       1 calls)
     v_xc         :      0.04s CPU      0.05s WALL (       1 calls)
     newd         :      0.20s CPU      0.26s WALL (       1 calls)

     Called by c_bands:
     init_us_2    :      0.06s CPU      0.06s WALL (      81 calls)
     cegterg      :    324.03s CPU    329.29s WALL (     338 calls)

     Called by sum_band:

     Called by *egterg:
     cdiaghg      :     13.53s CPU     13.55s WALL (    6111 calls)
     cegterg:over :     28.39s CPU     29.19s WALL (    6030 calls)
     cegterg:upda :     14.14s CPU     14.17s WALL (    6030 calls)
     cegterg:last :     34.49s CPU     34.50s WALL (    3513 calls)
     h_psi        :    215.45s CPU    219.34s WALL (    6449 calls)
     s_psi        :      8.88s CPU      8.90s WALL (    6449 calls)
     g_psi        :      2.52s CPU      2.52s WALL (    6030 calls)

     Called by h_psi:
     h_psi:calbec :     10.52s CPU     11.00s WALL (    6449 calls)
     vloc_psi     :    194.71s CPU    198.08s WALL (    6449 calls)
     add_vuspsi   :      9.16s CPU      9.20s WALL (    6449 calls)

     General routines
     calbec       :     10.50s CPU     10.99s WALL (    6449 calls)
     fft          :      0.05s CPU      0.08s WALL (      19 calls)
     ffts         :      0.00s CPU      0.00s WALL (       4 calls)
     fftw         :    157.45s CPU    160.28s WALL (  713844 calls)
     interpolate  :      0.01s CPU      0.01s WALL (       4 calls)
     davcio       :      0.02s CPU      0.34s WALL (     162 calls)
 
     Parallel routines
 
     PWSCF        :   5m39.46s CPU   6m10.40s WALL

 
   This run was terminated on:  11:19:51  19Mar2023            

=------------------------------------------------------------------------------=
   JOB DONE.
=------------------------------------------------------------------------------=
