
     Program BANDS v.6.8 starts on 19Mar2023 at 11:21:56 

     This program is part of the open-source Quantum ESPRESSO suite
     for quantum simulation of materials; please cite
         "P. Giannozzi et al., J. Phys.:Condens. Matter 21 395502 (2009);
         "P. Giannozzi et al., J. Phys.:Condens. Matter 29 465901 (2017);
         "P. Giannozzi et al., J. Chem. Phys. 152 154105 (2020);
          URL http://www.quantum-espresso.org", 
     in publications or presentations arising from this work. More details at
     http://www.quantum-espresso.org/quote

     Parallel version (MPI), running on    12 processors

     MPI processes distributed on     1 nodes
     R & G space division:  proc/nbgrp/npool/nimage =      12
     198647 MiB available memory on the printing compute node when the environment starts
 

     Reading xml data from directory:

     ./SnS.save/

     IMPORTANT: XC functional enforced from input :
     Exchange-correlation= PBESOL
                           (   1   4  10   8   0   0   0)
     Any further DFT definition will be discarded
     Please, verify this is what you really want

 
     Parallelization info
     --------------------
     sticks:   dense  smooth     PW     G-vecs:    dense   smooth      PW
     Min         198      98     28                35698    12602    1946
     Max         199      99     29                35715    12619    1959
     Sum        2377    1181    345               428421   151291   23395
 
     Using Slab Decomposition
 

     negative rho (up, down):  4.864E-05 0.000E+00
     Reading collected, re-writing distributed wavefunctions
     high-symmetry point:  0.0000 0.0000 0.0000   x coordinate   0.0000
     high-symmetry point:  0.5000 0.0000 0.0000   x coordinate   0.5000
     high-symmetry point:  0.5000 0.4764 0.0000   x coordinate   0.9764
     high-symmetry point:  0.0000 0.4764 0.0000   x coordinate   1.4764
     high-symmetry point:  0.0000 0.0000 0.0000   x coordinate   1.9527

     Plottable bands (eV) written to file SnS_bands.dat.gnu
     Bands written to file SnS_bands.dat

 **************************************************************************

                    xk=(   0.00000,   0.00000,   0.00000  )

     double point group C_s (m)    
     there are  4 classes and  2 irreducible representations
     the character table:

       E     -E    s     -s   
                              
G_3    1.00 -1.00  0.00  0.00
G_4    1.00 -1.00  0.00  0.00

     imaginary part

       E     -E    s     -s   
                              
G_3    0.00  0.00  1.00 -1.00
G_4    0.00  0.00 -1.00  1.00

     the symmetry operations in each class and the name of the first element:

     E             1
                                                                 
     -E           -1
                                                                 
     s             2
                                                                 
     -s           -2
                                                                 

     Band symmetry, C_s (m)     double point group:

     e(  1 -  2) =    -22.19627  eV     2   --> G_3            
     e(  1 -  2) =    -22.19627  eV     2   --> G_4            
     e(  3 -  4) =    -22.18630  eV     2   --> G_3            
     e(  3 -  4) =    -22.18630  eV     2   --> G_4            
     e(  5 -  6) =    -22.18094  eV     2   --> G_3            
     e(  5 -  6) =    -22.18094  eV     2   --> G_4            
     e(  7 -  8) =    -22.17406  eV     2   --> G_3            
     e(  7 -  8) =    -22.17406  eV     2   --> G_4            
     e(  9 - 10) =    -22.17040  eV     2   --> G_3            
     e(  9 - 10) =    -22.17040  eV     2   --> G_4            
     e( 11 - 12) =    -22.14190  eV     2   --> G_3            
     e( 11 - 12) =    -22.14190  eV     2   --> G_4            
     e( 13 - 14) =    -22.13070  eV     2   --> G_3            
     e( 13 - 14) =    -22.13070  eV     2   --> G_4            
     e( 15 - 16) =    -22.12574  eV     2   --> G_3            
     e( 15 - 16) =    -22.12574  eV     2   --> G_4            
     e( 17 - 18) =    -22.11605  eV     2   --> G_3            
     e( 17 - 18) =    -22.11605  eV     2   --> G_4            
     e( 19 - 20) =    -22.11087  eV     2   --> G_3            
     e( 19 - 20) =    -22.11087  eV     2   --> G_4            
     e( 21 - 22) =    -14.47672  eV     2   --> G_3            
     e( 21 - 22) =    -14.47672  eV     2   --> G_4            
     e( 23 - 24) =    -13.05268  eV     2   --> G_3            
     e( 23 - 24) =    -13.05268  eV     2   --> G_4            
     e( 25 - 26) =     -7.59793  eV     2   --> G_3            
     e( 25 - 26) =     -7.59793  eV     2   --> G_4            
     e( 27 - 28) =     -5.71465  eV     2   --> G_3            
     e( 27 - 28) =     -5.71465  eV     2   --> G_4            
     e( 29 - 30) =     -4.89882  eV     2   --> G_3            
     e( 29 - 30) =     -4.89882  eV     2   --> G_4            
     e( 31 - 32) =     -4.39949  eV     2   --> G_3            
     e( 31 - 32) =     -4.39949  eV     2   --> G_4            
     e( 33 - 34) =     -4.29979  eV     2   --> G_3            
     e( 33 - 34) =     -4.29979  eV     2   --> G_4            
     e( 35 - 36) =     -3.01183  eV     2   --> G_3            
     e( 35 - 36) =     -3.01183  eV     2   --> G_4            
     e( 37 - 38) =     -2.99159  eV     2   --> G_3            
     e( 37 - 38) =     -2.99159  eV     2   --> G_4            
     e( 39 - 40) =     -1.44789  eV     2   --> G_3            
     e( 39 - 40) =     -1.44789  eV     2   --> G_4            
     e( 41 - 42) =      0.41164  eV     2   --> G_3            
     e( 41 - 42) =      0.41164  eV     2   --> G_4            
     e( 43 - 44) =      2.06726  eV     2   --> G_3            
     e( 43 - 44) =      2.06726  eV     2   --> G_4            
     e( 45 - 46) =      2.57705  eV     2   --> G_3            
     e( 45 - 46) =      2.57705  eV     2   --> G_4            
     e( 47 - 48) =      2.83178  eV     2   --> G_3            
     e( 47 - 48) =      2.83178  eV     2   --> G_4            

 **************************************************************************

 **************************************************************************

                    xk=(   0.02500,   0.00000,   0.00000  )

     double point group C_1 (1)    
     there are  2 classes and  1 irreducible representations
     the character table:

       E     -E   
                  
G_2    1.00 -1.00

     the symmetry operations in each class and the name of the first element:

     E             1
                                                                 
     -E           -1
                                                                 

     Band symmetry, C_1 (1)     double point group:

     e(  1 -  2) =    -22.19614  eV     2   -->   2 G_2            
     e(  3 -  4) =    -22.18620  eV     2   -->   2 G_2            
     e(  5 -  6) =    -22.18102  eV     2   -->   2 G_2            
     e(  7 -  8) =    -22.17425  eV     2   -->   2 G_2            
     e(  9 - 10) =    -22.17025  eV     2   -->   2 G_2            
     e( 11 - 12) =    -22.14192  eV     2   -->   2 G_2            
     e( 13 - 14) =    -22.13072  eV     2   -->   2 G_2            
     e( 15 - 16) =    -22.12570  eV     2   -->   2 G_2            
     e( 17 - 18) =    -22.11612  eV     2   -->   2 G_2            
     e( 19 - 20) =    -22.11087  eV     2   -->   2 G_2            
     e( 21 - 22) =    -14.47322  eV     2   -->   2 G_2            
     e( 23 - 24) =    -13.05195  eV     2   -->   2 G_2            
     e( 25 - 26) =     -7.60639  eV     2   -->   2 G_2            
     e( 27 - 28) =     -5.73083  eV     2   -->   2 G_2            
     e( 29 - 30) =     -4.89705  eV     2   -->   2 G_2            
     e( 31 - 32) =     -4.39872  eV     2   -->   2 G_2            
     e( 33 - 34) =     -4.29221  eV     2   -->   2 G_2            
     e( 35 - 36) =     -3.02297  eV     2   -->   2 G_2            
     e( 37 - 38) =     -2.96415  eV     2   -->   2 G_2            
     e( 39 - 40) =     -1.45116  eV     2   -->   2 G_2            
     e( 41 - 42) =      0.41644  eV     2   -->   2 G_2            
     e( 43 - 44) =      2.08089  eV     2   -->   2 G_2            
     e( 45 - 46) =      2.57908  eV     2   -->   2 G_2            
     e( 47 - 48) =      2.80899  eV     2   -->   2 G_2            

 **************************************************************************

 **************************************************************************

                    xk=(   0.05000,   0.00000,   0.00000  )

     Band symmetry, C_1 (1)     double point group:

     e(  1 -  2) =    -22.19575  eV     2   -->   2 G_2            
     e(  3 -  4) =    -22.18589  eV     2   -->   2 G_2            
     e(  5 -  6) =    -22.18122  eV     2   -->   2 G_2            
     e(  7 -  8) =    -22.17472  eV     2   -->   2 G_2            
     e(  9 - 10) =    -22.16982  eV     2   -->   2 G_2            
     e( 11 - 12) =    -22.14197  eV     2   -->   2 G_2            
     e( 13 - 14) =    -22.13076  eV     2   -->   2 G_2            
     e( 15 - 16) =    -22.12556  eV     2   -->   2 G_2            
     e( 17 - 18) =    -22.11632  eV     2   -->   2 G_2            
     e( 19 - 20) =    -22.11086  eV     2   -->   2 G_2            
     e( 21 - 22) =    -14.46273  eV     2   -->   2 G_2            
     e( 23 - 24) =    -13.04985  eV     2   -->   2 G_2            
     e( 25 - 26) =     -7.63137  eV     2   -->   2 G_2            
     e( 27 - 28) =     -5.77874  eV     2   -->   2 G_2            
     e( 29 - 30) =     -4.89097  eV     2   -->   2 G_2            
     e( 31 - 32) =     -4.39519  eV     2   -->   2 G_2            
     e( 33 - 34) =     -4.27073  eV     2   -->   2 G_2            
     e( 35 - 36) =     -3.02861  eV     2   -->   2 G_2            
     e( 37 - 38) =     -2.91091  eV     2   -->   2 G_2            
     e( 39 - 40) =     -1.46104  eV     2   -->   2 G_2            
     e( 41 - 42) =      0.43081  eV     2   -->   2 G_2            
     e( 43 - 44) =      2.12062  eV     2   -->   2 G_2            
     e( 45 - 46) =      2.58392  eV     2   -->   2 G_2            
     e( 47 - 48) =      2.73545  eV     2   -->   2 G_2            

 **************************************************************************

 **************************************************************************

                    xk=(   0.07500,   0.00000,   0.00000  )

     Band symmetry, C_1 (1)     double point group:

     e(  1 -  2) =    -22.19514  eV     2   -->   2 G_2            
     e(  3 -  4) =    -22.18538  eV     2   -->   2 G_2            
     e(  5 -  6) =    -22.18154  eV     2   -->   2 G_2            
     e(  7 -  8) =    -22.17537  eV     2   -->   2 G_2            
     e(  9 - 10) =    -22.16924  eV     2   -->   2 G_2            
     e( 11 - 12) =    -22.14204  eV     2   -->   2 G_2            
     e( 13 - 14) =    -22.13082  eV     2   -->   2 G_2            
     e( 15 - 16) =    -22.12532  eV     2   -->   2 G_2            
     e( 17 - 18) =    -22.11666  eV     2   -->   2 G_2            
     e( 19 - 20) =    -22.11086  eV     2   -->   2 G_2            
     e( 21 - 22) =    -14.44532  eV     2   -->   2 G_2            
     e( 23 - 24) =    -13.04655  eV     2   -->   2 G_2            
     e( 25 - 26) =     -7.67175  eV     2   -->   2 G_2            
     e( 27 - 28) =     -5.85639  eV     2   -->   2 G_2            
     e( 29 - 30) =     -4.87891  eV     2   -->   2 G_2            
     e( 31 - 32) =     -4.38668  eV     2   -->   2 G_2            
     e( 33 - 34) =     -4.23770  eV     2   -->   2 G_2            
     e( 35 - 36) =     -3.02526  eV     2   -->   2 G_2            
     e( 37 - 38) =     -2.83883  eV     2   -->   2 G_2            
     e( 39 - 40) =     -1.47774  eV     2   -->   2 G_2            
     e( 41 - 42) =      0.45480  eV     2   -->   2 G_2            
     e( 43 - 44) =      2.18292  eV     2   -->   2 G_2            
     e( 45 - 46) =      2.58558  eV     2   -->   2 G_2            
     e( 47 - 48) =      2.60684  eV     2   -->   2 G_2            

 **************************************************************************

 **************************************************************************

                    xk=(   0.10000,   0.00000,   0.00000  )

     Band symmetry, C_1 (1)     double point group:

     e(  1 -  2) =    -22.19432  eV     2   -->   2 G_2            
     e(  3 -  4) =    -22.18472  eV     2   -->   2 G_2            
     e(  5 -  6) =    -22.18196  eV     2   -->   2 G_2            
     e(  7 -  8) =    -22.17612  eV     2   -->   2 G_2            
     e(  9 - 10) =    -22.16855  eV     2   -->   2 G_2            
     e( 11 - 12) =    -22.14215  eV     2   -->   2 G_2            
     e( 13 - 14) =    -22.13091  eV     2   -->   2 G_2            
     e( 15 - 16) =    -22.12499  eV     2   -->   2 G_2            
     e( 17 - 18) =    -22.11711  eV     2   -->   2 G_2            
     e( 19 - 20) =    -22.11085  eV     2   -->   2 G_2            
     e( 21 - 22) =    -14.42109  eV     2   -->   2 G_2            
     e( 23 - 24) =    -13.04238  eV     2   -->   2 G_2            
     e( 25 - 26) =     -7.72572  eV     2   -->   2 G_2            
     e( 27 - 28) =     -5.96036  eV     2   -->   2 G_2            
     e( 29 - 30) =     -4.85925  eV     2   -->   2 G_2            
     e( 31 - 32) =     -4.37156  eV     2   -->   2 G_2            
     e( 33 - 34) =     -4.19499  eV     2   -->   2 G_2            
     e( 35 - 36) =     -3.01506  eV     2   -->   2 G_2            
     e( 37 - 38) =     -2.75044  eV     2   -->   2 G_2            
     e( 39 - 40) =     -1.50153  eV     2   -->   2 G_2            
     e( 41 - 42) =      0.48843  eV     2   -->   2 G_2            
     e( 43 - 44) =      2.26125  eV     2   -->   2 G_2            
     e( 45 - 46) =      2.42497  eV     2   -->   2 G_2            
     e( 47 - 48) =      2.58075  eV     2   -->   2 G_2            

 **************************************************************************

 **************************************************************************

                    xk=(   0.12500,   0.00000,   0.00000  )

     Band symmetry, C_1 (1)     double point group:

     e(  1 -  2) =    -22.19333  eV     2   -->   2 G_2            
     e(  3 -  4) =    -22.18400  eV     2   -->   2 G_2            
     e(  5 -  6) =    -22.18240  eV     2   -->   2 G_2            
     e(  7 -  8) =    -22.17693  eV     2   -->   2 G_2            
     e(  9 - 10) =    -22.16780  eV     2   -->   2 G_2            
     e( 11 - 12) =    -22.14230  eV     2   -->   2 G_2            
     e( 13 - 14) =    -22.13099  eV     2   -->   2 G_2            
     e( 15 - 16) =    -22.12457  eV     2   -->   2 G_2            
     e( 17 - 18) =    -22.11766  eV     2   -->   2 G_2            
     e( 19 - 20) =    -22.11083  eV     2   -->   2 G_2            
     e( 21 - 22) =    -14.39019  eV     2   -->   2 G_2            
     e( 23 - 24) =    -13.03779  eV     2   -->   2 G_2            
     e( 25 - 26) =     -7.79094  eV     2   -->   2 G_2            
     e( 27 - 28) =     -6.08621  eV     2   -->   2 G_2            
     e( 29 - 30) =     -4.83110  eV     2   -->   2 G_2            
     e( 31 - 32) =     -4.34902  eV     2   -->   2 G_2            
     e( 33 - 34) =     -4.14378  eV     2   -->   2 G_2            
     e( 35 - 36) =     -2.99984  eV     2   -->   2 G_2            
     e( 37 - 38) =     -2.64891  eV     2   -->   2 G_2            
     e( 39 - 40) =     -1.53259  eV     2   -->   2 G_2            
     e( 41 - 42) =      0.53173  eV     2   -->   2 G_2            
     e( 43 - 44) =      2.21287  eV     2   -->   2 G_2            
     e( 45 - 46) =      2.34530  eV     2   -->   2 G_2            
     e( 47 - 48) =      2.54712  eV     2   -->   2 G_2            

 **************************************************************************

 **************************************************************************

                    xk=(   0.15000,   0.00000,   0.00000  )

     Band symmetry, C_1 (1)     double point group:

     e(  1 -  2) =    -22.19221  eV     2   -->   2 G_2            
     e(  3 -  4) =    -22.18374  eV     2   -->   2 G_2            
     e(  5 -  6) =    -22.18234  eV     2   -->   2 G_2            
     e(  7 -  8) =    -22.17774  eV     2   -->   2 G_2            
     e(  9 - 10) =    -22.16699  eV     2   -->   2 G_2            
     e( 11 - 12) =    -22.14248  eV     2   -->   2 G_2            
     e( 13 - 14) =    -22.13109  eV     2   -->   2 G_2            
     e( 15 - 16) =    -22.12406  eV     2   -->   2 G_2            
     e( 17 - 18) =    -22.11830  eV     2   -->   2 G_2            
     e( 19 - 20) =    -22.11082  eV     2   -->   2 G_2            
     e( 21 - 22) =    -14.35281  eV     2   -->   2 G_2            
     e( 23 - 24) =    -13.03334  eV     2   -->   2 G_2            
     e( 25 - 26) =     -7.86467  eV     2   -->   2 G_2            
     e( 27 - 28) =     -6.22919  eV     2   -->   2 G_2            
     e( 29 - 30) =     -4.79424  eV     2   -->   2 G_2            
     e( 31 - 32) =     -4.31875  eV     2   -->   2 G_2            
     e( 33 - 34) =     -4.08491  eV     2   -->   2 G_2            
     e( 35 - 36) =     -2.98107  eV     2   -->   2 G_2            
     e( 37 - 38) =     -2.53743  eV     2   -->   2 G_2            
     e( 39 - 40) =     -1.57093  eV     2   -->   2 G_2            
     e( 41 - 42) =      0.58471  eV     2   -->   2 G_2            
     e( 43 - 44) =      1.98178  eV     2   -->   2 G_2            
     e( 45 - 46) =      2.42017  eV     2   -->   2 G_2            
     e( 47 - 48) =      2.47328  eV     2   -->   2 G_2            

 **************************************************************************

 **************************************************************************

                    xk=(   0.17500,   0.00000,   0.00000  )

     Band symmetry, C_1 (1)     double point group:

     e(  1 -  2) =    -22.19105  eV     2   -->   2 G_2            
     e(  3 -  4) =    -22.18427  eV     2   -->   2 G_2            
     e(  5 -  6) =    -22.18146  eV     2   -->   2 G_2            
     e(  7 -  8) =    -22.17852  eV     2   -->   2 G_2            
     e(  9 - 10) =    -22.16612  eV     2   -->   2 G_2            
     e( 11 - 12) =    -22.14271  eV     2   -->   2 G_2            
     e( 13 - 14) =    -22.13118  eV     2   -->   2 G_2            
     e( 15 - 16) =    -22.12348  eV     2   -->   2 G_2            
     e( 17 - 18) =    -22.11903  eV     2   -->   2 G_2            
     e( 19 - 20) =    -22.11081  eV     2   -->   2 G_2            
     e( 21 - 22) =    -14.30921  eV     2   -->   2 G_2            
     e( 23 - 24) =    -13.02974  eV     2   -->   2 G_2            
     e( 25 - 26) =     -7.94390  eV     2   -->   2 G_2            
     e( 27 - 28) =     -6.38474  eV     2   -->   2 G_2            
     e( 29 - 30) =     -4.74891  eV     2   -->   2 G_2            
     e( 31 - 32) =     -4.28084  eV     2   -->   2 G_2            
     e( 33 - 34) =     -4.01910  eV     2   -->   2 G_2            
     e( 35 - 36) =     -2.96014  eV     2   -->   2 G_2            
     e( 37 - 38) =     -2.41884  eV     2   -->   2 G_2            
     e( 39 - 40) =     -1.61629  eV     2   -->   2 G_2            
     e( 41 - 42) =      0.64734  eV     2   -->   2 G_2            
     e( 43 - 44) =      1.74127  eV     2   -->   2 G_2            
     e( 45 - 46) =      2.36069  eV     2   -->   2 G_2            
     e( 47 - 48) =      2.46722  eV     2   -->   2 G_2            

 **************************************************************************

 **************************************************************************

                    xk=(   0.20000,   0.00000,   0.00000  )

     Band symmetry, C_1 (1)     double point group:

     e(  1 -  2) =    -22.18994  eV     2   -->   2 G_2            
     e(  3 -  4) =    -22.18502  eV     2   -->   2 G_2            
     e(  5 -  6) =    -22.18036  eV     2   -->   2 G_2            
     e(  7 -  8) =    -22.17918  eV     2   -->   2 G_2            
     e(  9 - 10) =    -22.16520  eV     2   -->   2 G_2            
     e( 11 - 12) =    -22.14300  eV     2   -->   2 G_2            
     e( 13 - 14) =    -22.13127  eV     2   -->   2 G_2            
     e( 15 - 16) =    -22.12282  eV     2   -->   2 G_2            
     e( 17 - 18) =    -22.11983  eV     2   -->   2 G_2            
     e( 19 - 20) =    -22.11080  eV     2   -->   2 G_2            
     e( 21 - 22) =    -14.25969  eV     2   -->   2 G_2            
     e( 23 - 24) =    -13.02776  eV     2   -->   2 G_2            
     e( 25 - 26) =     -8.02547  eV     2   -->   2 G_2            
     e( 27 - 28) =     -6.54881  eV     2   -->   2 G_2            
     e( 29 - 30) =     -4.69554  eV     2   -->   2 G_2            
     e( 31 - 32) =     -4.23558  eV     2   -->   2 G_2            
     e( 33 - 34) =     -3.94709  eV     2   -->   2 G_2            
     e( 35 - 36) =     -2.93844  eV     2   -->   2 G_2            
     e( 37 - 38) =     -2.29558  eV     2   -->   2 G_2            
     e( 39 - 40) =     -1.66800  eV     2   -->   2 G_2            
     e( 41 - 42) =      0.71957  eV     2   -->   2 G_2            
     e( 43 - 44) =      1.49802  eV     2   -->   2 G_2            
     e( 45 - 46) =      2.22268  eV     2   -->   2 G_2            
     e( 47 - 48) =      2.46876  eV     2   -->   2 G_2            

 **************************************************************************

 **************************************************************************

                    xk=(   0.22500,   0.00000,   0.00000  )

     Band symmetry, C_1 (1)     double point group:

     e(  1 -  2) =    -22.18901  eV     2   -->   2 G_2            
     e(  3 -  4) =    -22.18585  eV     2   -->   2 G_2            
     e(  5 -  6) =    -22.17962  eV     2   -->   2 G_2            
     e(  7 -  8) =    -22.17917  eV     2   -->   2 G_2            
     e(  9 - 10) =    -22.16422  eV     2   -->   2 G_2            
     e( 11 - 12) =    -22.14334  eV     2   -->   2 G_2            
     e( 13 - 14) =    -22.13133  eV     2   -->   2 G_2            
     e( 15 - 16) =    -22.12210  eV     2   -->   2 G_2            
     e( 17 - 18) =    -22.12067  eV     2   -->   2 G_2            
     e( 19 - 20) =    -22.11081  eV     2   -->   2 G_2            
     e( 21 - 22) =    -14.20460  eV     2   -->   2 G_2            
     e( 23 - 24) =    -13.02829  eV     2   -->   2 G_2            
     e( 25 - 26) =     -8.10623  eV     2   -->   2 G_2            
     e( 27 - 28) =     -6.71787  eV     2   -->   2 G_2            
     e( 29 - 30) =     -4.63471  eV     2   -->   2 G_2            
     e( 31 - 32) =     -4.18352  eV     2   -->   2 G_2            
     e( 33 - 34) =     -3.86979  eV     2   -->   2 G_2            
     e( 35 - 36) =     -2.91747  eV     2   -->   2 G_2            
     e( 37 - 38) =     -2.16985  eV     2   -->   2 G_2            
     e( 39 - 40) =     -1.72492  eV     2   -->   2 G_2            
     e( 41 - 42) =      0.80127  eV     2   -->   2 G_2            
     e( 43 - 44) =      1.25717  eV     2   -->   2 G_2            
     e( 45 - 46) =      2.07283  eV     2   -->   2 G_2            
     e( 47 - 48) =      2.41579  eV     2   -->   2 G_2            

 **************************************************************************

 **************************************************************************

                    xk=(   0.25000,   0.00000,   0.00000  )

     Band symmetry, C_1 (1)     double point group:

     e(  1 -  2) =    -22.18842  eV     2   -->   2 G_2            
     e(  3 -  4) =    -22.18671  eV     2   -->   2 G_2            
     e(  5 -  6) =    -22.17968  eV     2   -->   2 G_2            
     e(  7 -  8) =    -22.17799  eV     2   -->   2 G_2            
     e(  9 - 10) =    -22.16319  eV     2   -->   2 G_2            
     e( 11 - 12) =    -22.14373  eV     2   -->   2 G_2            
     e( 13 - 14) =    -22.13137  eV     2   -->   2 G_2            
     e( 15 - 16) =    -22.12154  eV     2   -->   2 G_2            
     e( 17 - 18) =    -22.12132  eV     2   -->   2 G_2            
     e( 19 - 20) =    -22.11082  eV     2   -->   2 G_2            
     e( 21 - 22) =    -14.14436  eV     2   -->   2 G_2            
     e( 23 - 24) =    -13.03226  eV     2   -->   2 G_2            
     e( 25 - 26) =     -8.18308  eV     2   -->   2 G_2            
     e( 27 - 28) =     -6.88894  eV     2   -->   2 G_2            
     e( 29 - 30) =     -4.56702  eV     2   -->   2 G_2            
     e( 31 - 32) =     -4.12539  eV     2   -->   2 G_2            
     e( 33 - 34) =     -3.78838  eV     2   -->   2 G_2            
     e( 35 - 36) =     -2.89883  eV     2   -->   2 G_2            
     e( 37 - 38) =     -2.04390  eV     2   -->   2 G_2            
     e( 39 - 40) =     -1.78533  eV     2   -->   2 G_2            
     e( 41 - 42) =      0.89223  eV     2   -->   2 G_2            
     e( 43 - 44) =      1.02322  eV     2   -->   2 G_2            
     e( 45 - 46) =      1.92152  eV     2   -->   2 G_2            
     e( 47 - 48) =      2.31154  eV     2   -->   2 G_2            

 **************************************************************************

 **************************************************************************

                    xk=(   0.27500,   0.00000,   0.00000  )

     Band symmetry, C_1 (1)     double point group:

     e(  1 -  2) =    -22.18826  eV     2   -->   2 G_2            
     e(  3 -  4) =    -22.18757  eV     2   -->   2 G_2            
     e(  5 -  6) =    -22.17933  eV     2   -->   2 G_2            
     e(  7 -  8) =    -22.17684  eV     2   -->   2 G_2            
     e(  9 - 10) =    -22.16211  eV     2   -->   2 G_2            
     e( 11 - 12) =    -22.14419  eV     2   -->   2 G_2            
     e( 13 - 14) =    -22.13136  eV     2   -->   2 G_2            
     e( 15 - 16) =    -22.12243  eV     2   -->   2 G_2            
     e( 17 - 18) =    -22.12049  eV     2   -->   2 G_2            
     e( 19 - 20) =    -22.11085  eV     2   -->   2 G_2            
     e( 21 - 22) =    -14.07948  eV     2   -->   2 G_2            
     e( 23 - 24) =    -13.04063  eV     2   -->   2 G_2            
     e( 25 - 26) =     -8.25310  eV     2   -->   2 G_2            
     e( 27 - 28) =     -7.05939  eV     2   -->   2 G_2            
     e( 29 - 30) =     -4.49316  eV     2   -->   2 G_2            
     e( 31 - 32) =     -4.06221  eV     2   -->   2 G_2            
     e( 33 - 34) =     -3.70443  eV     2   -->   2 G_2            
     e( 35 - 36) =     -2.88422  eV     2   -->   2 G_2            
     e( 37 - 38) =     -1.92042  eV     2   -->   2 G_2            
     e( 39 - 40) =     -1.84681  eV     2   -->   2 G_2            
     e( 41 - 42) =      0.80078  eV     2   -->   2 G_2            
     e( 43 - 44) =      0.99212  eV     2   -->   2 G_2            
     e( 45 - 46) =      1.77656  eV     2   -->   2 G_2            
     e( 47 - 48) =      2.16693  eV     2   -->   2 G_2            

 **************************************************************************

 **************************************************************************

                    xk=(   0.30000,   0.00000,   0.00000  )

     Band symmetry, C_1 (1)     double point group:

     e(  1 -  2) =    -22.18853  eV     2   -->   2 G_2            
     e(  3 -  4) =    -22.18836  eV     2   -->   2 G_2            
     e(  5 -  6) =    -22.17861  eV     2   -->   2 G_2            
     e(  7 -  8) =    -22.17576  eV     2   -->   2 G_2            
     e(  9 - 10) =    -22.16098  eV     2   -->   2 G_2            
     e( 11 - 12) =    -22.14472  eV     2   -->   2 G_2            
     e( 13 - 14) =    -22.13132  eV     2   -->   2 G_2            
     e( 15 - 16) =    -22.12330  eV     2   -->   2 G_2            
     e( 17 - 18) =    -22.11963  eV     2   -->   2 G_2            
     e( 19 - 20) =    -22.11091  eV     2   -->   2 G_2            
     e( 21 - 22) =    -14.01052  eV     2   -->   2 G_2            
     e( 23 - 24) =    -13.05430  eV     2   -->   2 G_2            
     e( 25 - 26) =     -8.31360  eV     2   -->   2 G_2            
     e( 27 - 28) =     -7.22698  eV     2   -->   2 G_2            
     e( 29 - 30) =     -4.41391  eV     2   -->   2 G_2            
     e( 31 - 32) =     -3.99533  eV     2   -->   2 G_2            
     e( 33 - 34) =     -3.62005  eV     2   -->   2 G_2            
     e( 35 - 36) =     -2.87538  eV     2   -->   2 G_2            
     e( 37 - 38) =     -1.90607  eV     2   -->   2 G_2            
     e( 39 - 40) =     -1.80311  eV     2   -->   2 G_2            
     e( 41 - 42) =      0.59518  eV     2   -->   2 G_2            
     e( 43 - 44) =      1.10044  eV     2   -->   2 G_2            
     e( 45 - 46) =      1.64400  eV     2   -->   2 G_2            
     e( 47 - 48) =      1.99402  eV     2   -->   2 G_2            

 **************************************************************************

 **************************************************************************

                    xk=(   0.32500,   0.00000,   0.00000  )

     Band symmetry, C_1 (1)     double point group:

     e(  1 -  2) =    -22.18923  eV     2   -->   2 G_2            
     e(  3 -  4) =    -22.18892  eV     2   -->   2 G_2            
     e(  5 -  6) =    -22.17767  eV     2   -->   2 G_2            
     e(  7 -  8) =    -22.17479  eV     2   -->   2 G_2            
     e(  9 - 10) =    -22.15982  eV     2   -->   2 G_2            
     e( 11 - 12) =    -22.14533  eV     2   -->   2 G_2            
     e( 13 - 14) =    -22.13123  eV     2   -->   2 G_2            
     e( 15 - 16) =    -22.12416  eV     2   -->   2 G_2            
     e( 17 - 18) =    -22.11874  eV     2   -->   2 G_2            
     e( 19 - 20) =    -22.11099  eV     2   -->   2 G_2            
     e( 21 - 22) =    -13.93813  eV     2   -->   2 G_2            
     e( 23 - 24) =    -13.07410  eV     2   -->   2 G_2            
     e( 25 - 26) =     -8.36218  eV     2   -->   2 G_2            
     e( 27 - 28) =     -7.38967  eV     2   -->   2 G_2            
     e( 29 - 30) =     -4.33016  eV     2   -->   2 G_2            
     e( 31 - 32) =     -3.92661  eV     2   -->   2 G_2            
     e( 33 - 34) =     -3.53791  eV     2   -->   2 G_2            
     e( 35 - 36) =     -2.87395  eV     2   -->   2 G_2            
     e( 37 - 38) =     -1.95886  eV     2   -->   2 G_2            
     e( 39 - 40) =     -1.69732  eV     2   -->   2 G_2            
     e( 41 - 42) =      0.41330  eV     2   -->   2 G_2            
     e( 43 - 44) =      1.21631  eV     2   -->   2 G_2            
     e( 45 - 46) =      1.52864  eV     2   -->   2 G_2            
     e( 47 - 48) =      1.80289  eV     2   -->   2 G_2            

 **************************************************************************

 **************************************************************************

                    xk=(   0.35000,   0.00000,   0.00000  )

     Band symmetry, C_1 (1)     double point group:

     e(  1 -  2) =    -22.18994  eV     2   -->   2 G_2            
     e(  3 -  4) =    -22.18951  eV     2   -->   2 G_2            
     e(  5 -  6) =    -22.17665  eV     2   -->   2 G_2            
     e(  7 -  8) =    -22.17395  eV     2   -->   2 G_2            
     e(  9 - 10) =    -22.15864  eV     2   -->   2 G_2            
     e( 11 - 12) =    -22.14602  eV     2   -->   2 G_2            
     e( 13 - 14) =    -22.13108  eV     2   -->   2 G_2            
     e( 15 - 16) =    -22.12499  eV     2   -->   2 G_2            
     e( 17 - 18) =    -22.11786  eV     2   -->   2 G_2            
     e( 19 - 20) =    -22.11113  eV     2   -->   2 G_2            
     e( 21 - 22) =    -13.86305  eV     2   -->   2 G_2            
     e( 23 - 24) =    -13.10066  eV     2   -->   2 G_2            
     e( 25 - 26) =     -8.39682  eV     2   -->   2 G_2            
     e( 27 - 28) =     -7.54562  eV     2   -->   2 G_2            
     e( 29 - 30) =     -4.24298  eV     2   -->   2 G_2            
     e( 31 - 32) =     -3.85872  eV     2   -->   2 G_2            
     e( 33 - 34) =     -3.46105  eV     2   -->   2 G_2            
     e( 35 - 36) =     -2.88134  eV     2   -->   2 G_2            
     e( 37 - 38) =     -1.99987  eV     2   -->   2 G_2            
     e( 39 - 40) =     -1.61072  eV     2   -->   2 G_2            
     e( 41 - 42) =      0.26417  eV     2   -->   2 G_2            
     e( 43 - 44) =      1.33747  eV     2   -->   2 G_2            
     e( 45 - 46) =      1.43427  eV     2   -->   2 G_2            
     e( 47 - 48) =      1.60198  eV     2   -->   2 G_2            

 **************************************************************************

 **************************************************************************

                    xk=(   0.37500,   0.00000,   0.00000  )

     Band symmetry, C_1 (1)     double point group:

     e(  1 -  2) =    -22.19058  eV     2   -->   2 G_2            
     e(  3 -  4) =    -22.19012  eV     2   -->   2 G_2            
     e(  5 -  6) =    -22.17565  eV     2   -->   2 G_2            
     e(  7 -  8) =    -22.17325  eV     2   -->   2 G_2            
     e(  9 - 10) =    -22.15743  eV     2   -->   2 G_2            
     e( 11 - 12) =    -22.14677  eV     2   -->   2 G_2            
     e( 13 - 14) =    -22.13088  eV     2   -->   2 G_2            
     e( 15 - 16) =    -22.12579  eV     2   -->   2 G_2            
     e( 17 - 18) =    -22.11697  eV     2   -->   2 G_2            
     e( 19 - 20) =    -22.11131  eV     2   -->   2 G_2            
     e( 21 - 22) =    -13.78610  eV     2   -->   2 G_2            
     e( 23 - 24) =    -13.13443  eV     2   -->   2 G_2            
     e( 25 - 26) =     -8.41590  eV     2   -->   2 G_2            
     e( 27 - 28) =     -7.69316  eV     2   -->   2 G_2            
     e( 29 - 30) =     -4.15371  eV     2   -->   2 G_2            
     e( 31 - 32) =     -3.79555  eV     2   -->   2 G_2            
     e( 33 - 34) =     -3.39224  eV     2   -->   2 G_2            
     e( 35 - 36) =     -2.89855  eV     2   -->   2 G_2            
     e( 37 - 38) =     -2.02317  eV     2   -->   2 G_2            
     e( 39 - 40) =     -1.55302  eV     2   -->   2 G_2            
     e( 41 - 42) =      0.15888  eV     2   -->   2 G_2            
     e( 43 - 44) =      1.36375  eV     2   -->   2 G_2            
     e( 45 - 46) =      1.38283  eV     2   -->   2 G_2            
     e( 47 - 48) =      1.47498  eV     2   -->   2 G_2            

 **************************************************************************

 **************************************************************************

                    xk=(   0.40000,   0.00000,   0.00000  )

     Band symmetry, C_1 (1)     double point group:

     e(  1 -  2) =    -22.19111  eV     2   -->   2 G_2            
     e(  3 -  4) =    -22.19068  eV     2   -->   2 G_2            
     e(  5 -  6) =    -22.17472  eV     2   -->   2 G_2            
     e(  7 -  8) =    -22.17272  eV     2   -->   2 G_2            
     e(  9 - 10) =    -22.15622  eV     2   -->   2 G_2            
     e( 11 - 12) =    -22.14760  eV     2   -->   2 G_2            
     e( 13 - 14) =    -22.13062  eV     2   -->   2 G_2            
     e( 15 - 16) =    -22.12652  eV     2   -->   2 G_2            
     e( 17 - 18) =    -22.11612  eV     2   -->   2 G_2            
     e( 19 - 20) =    -22.11154  eV     2   -->   2 G_2            
     e( 21 - 22) =    -13.70820  eV     2   -->   2 G_2            
     e( 23 - 24) =    -13.17558  eV     2   -->   2 G_2            
     e( 25 - 26) =     -8.41826  eV     2   -->   2 G_2            
     e( 27 - 28) =     -7.83070  eV     2   -->   2 G_2            
     e( 29 - 30) =     -4.06402  eV     2   -->   2 G_2            
     e( 31 - 32) =     -3.74273  eV     2   -->   2 G_2            
     e( 33 - 34) =     -3.33246  eV     2   -->   2 G_2            
     e( 35 - 36) =     -2.92599  eV     2   -->   2 G_2            
     e( 37 - 38) =     -2.02328  eV     2   -->   2 G_2            
     e( 39 - 40) =     -1.53338  eV     2   -->   2 G_2            
     e( 41 - 42) =      0.10801  eV     2   -->   2 G_2            
     e( 43 - 44) =      1.18192  eV     2   -->   2 G_2            
     e( 45 - 46) =      1.31904  eV     2   -->   2 G_2            
     e( 47 - 48) =      1.58562  eV     2   -->   2 G_2            

 **************************************************************************

 **************************************************************************

                    xk=(   0.42500,   0.00000,   0.00000  )

     Band symmetry, C_1 (1)     double point group:

     e(  1 -  2) =    -22.19154  eV     2   -->   2 G_2            
     e(  3 -  4) =    -22.19117  eV     2   -->   2 G_2            
     e(  5 -  6) =    -22.17391  eV     2   -->   2 G_2            
     e(  7 -  8) =    -22.17237  eV     2   -->   2 G_2            
     e(  9 - 10) =    -22.15503  eV     2   -->   2 G_2            
     e( 11 - 12) =    -22.14851  eV     2   -->   2 G_2            
     e( 13 - 14) =    -22.13031  eV     2   -->   2 G_2            
     e( 15 - 16) =    -22.12722  eV     2   -->   2 G_2            
     e( 17 - 18) =    -22.11531  eV     2   -->   2 G_2            
     e( 19 - 20) =    -22.11185  eV     2   -->   2 G_2            
     e( 21 - 22) =    -13.63032  eV     2   -->   2 G_2            
     e( 23 - 24) =    -13.22399  eV     2   -->   2 G_2            
     e( 25 - 26) =     -8.40319  eV     2   -->   2 G_2            
     e( 27 - 28) =     -7.95676  eV     2   -->   2 G_2            
     e( 29 - 30) =     -3.97607  eV     2   -->   2 G_2            
     e( 31 - 32) =     -3.70754  eV     2   -->   2 G_2            
     e( 33 - 34) =     -3.27938  eV     2   -->   2 G_2            
     e( 35 - 36) =     -2.96331  eV     2   -->   2 G_2            
     e( 37 - 38) =     -1.99692  eV     2   -->   2 G_2            
     e( 39 - 40) =     -1.55526  eV     2   -->   2 G_2            
     e( 41 - 42) =      0.11652  eV     2   -->   2 G_2            
     e( 43 - 44) =      0.97859  eV     2   -->   2 G_2            
     e( 45 - 46) =      1.30112  eV     2   -->   2 G_2            
     e( 47 - 48) =      1.63932  eV     2   -->   2 G_2            

 **************************************************************************

 **************************************************************************

                    xk=(   0.45000,   0.00000,   0.00000  )

     Band symmetry, C_1 (1)     double point group:

     e(  1 -  2) =    -22.19184  eV     2   -->   2 G_2            
     e(  3 -  4) =    -22.19155  eV     2   -->   2 G_2            
     e(  5 -  6) =    -22.17324  eV     2   -->   2 G_2            
     e(  7 -  8) =    -22.17218  eV     2   -->   2 G_2            
     e(  9 - 10) =    -22.15385  eV     2   -->   2 G_2            
     e( 11 - 12) =    -22.14947  eV     2   -->   2 G_2            
     e( 13 - 14) =    -22.12993  eV     2   -->   2 G_2            
     e( 15 - 16) =    -22.12786  eV     2   -->   2 G_2            
     e( 17 - 18) =    -22.11455  eV     2   -->   2 G_2            
     e( 19 - 20) =    -22.11223  eV     2   -->   2 G_2            
     e( 21 - 22) =    -13.55354  eV     2   -->   2 G_2            
     e( 23 - 24) =    -13.27927  eV     2   -->   2 G_2            
     e( 25 - 26) =     -8.37043  eV     2   -->   2 G_2            
     e( 27 - 28) =     -8.06995  eV     2   -->   2 G_2            
     e( 29 - 30) =     -3.89271  eV     2   -->   2 G_2            
     e( 31 - 32) =     -3.69697  eV     2   -->   2 G_2            
     e( 33 - 34) =     -3.22799  eV     2   -->   2 G_2            
     e( 35 - 36) =     -3.00929  eV     2   -->   2 G_2            
     e( 37 - 38) =     -1.94463  eV     2   -->   2 G_2            
     e( 39 - 40) =     -1.61287  eV     2   -->   2 G_2            
     e( 41 - 42) =      0.18036  eV     2   -->   2 G_2            
     e( 43 - 44) =      0.78255  eV     2   -->   2 G_2            
     e( 45 - 46) =      1.31008  eV     2   -->   2 G_2            
     e( 47 - 48) =      1.57602  eV     2   -->   2 G_2            

 **************************************************************************

 **************************************************************************

                    xk=(   0.47500,   0.00000,   0.00000  )

     Band symmetry, C_1 (1)     double point group:

     e(  1 -  2) =    -22.19200  eV     2   -->   2 G_2            
     e(  3 -  4) =    -22.19179  eV     2   -->   2 G_2            
     e(  5 -  6) =    -22.17272  eV     2   -->   2 G_2            
     e(  7 -  8) =    -22.17216  eV     2   -->   2 G_2            
     e(  9 - 10) =    -22.15268  eV     2   -->   2 G_2            
     e( 11 - 12) =    -22.15048  eV     2   -->   2 G_2            
     e( 13 - 14) =    -22.12949  eV     2   -->   2 G_2            
     e( 15 - 16) =    -22.12845  eV     2   -->   2 G_2            
     e( 17 - 18) =    -22.11385  eV     2   -->   2 G_2            
     e( 19 - 20) =    -22.11268  eV     2   -->   2 G_2            
     e( 21 - 22) =    -13.47895  eV     2   -->   2 G_2            
     e( 23 - 24) =    -13.34078  eV     2   -->   2 G_2            
     e( 25 - 26) =     -8.32010  eV     2   -->   2 G_2            
     e( 27 - 28) =     -8.16898  eV     2   -->   2 G_2            
     e( 29 - 30) =     -3.81776  eV     2   -->   2 G_2            
     e( 31 - 32) =     -3.71403  eV     2   -->   2 G_2            
     e( 33 - 34) =     -3.17425  eV     2   -->   2 G_2            
     e( 35 - 36) =     -3.06183  eV     2   -->   2 G_2            
     e( 37 - 38) =     -1.87102  eV     2   -->   2 G_2            
     e( 39 - 40) =     -1.69376  eV     2   -->   2 G_2            
     e( 41 - 42) =      0.28920  eV     2   -->   2 G_2            
     e( 43 - 44) =      0.59846  eV     2   -->   2 G_2            
     e( 45 - 46) =      1.34508  eV     2   -->   2 G_2            
     e( 47 - 48) =      1.48431  eV     2   -->   2 G_2            

 **************************************************************************

 **************************************************************************

                    xk=(   0.50000,   0.00000,   0.00000  )

     zone border point and non-symmorphic group 
     symmetry decomposition not available

 **************************************************************************

 **************************************************************************

                    xk=(   0.50000,   0.02382,   0.00000  )

     zone border point and non-symmorphic group 
     symmetry decomposition not available

 **************************************************************************

 **************************************************************************

                    xk=(   0.50000,   0.04764,   0.00000  )

     zone border point and non-symmorphic group 
     symmetry decomposition not available

 **************************************************************************

 **************************************************************************

                    xk=(   0.50000,   0.07145,   0.00000  )

     zone border point and non-symmorphic group 
     symmetry decomposition not available

 **************************************************************************

 **************************************************************************

                    xk=(   0.50000,   0.09527,   0.00000  )

     zone border point and non-symmorphic group 
     symmetry decomposition not available

 **************************************************************************

 **************************************************************************

                    xk=(   0.50000,   0.11909,   0.00000  )

     zone border point and non-symmorphic group 
     symmetry decomposition not available

 **************************************************************************

 **************************************************************************

                    xk=(   0.50000,   0.14291,   0.00000  )

     zone border point and non-symmorphic group 
     symmetry decomposition not available

 **************************************************************************

 **************************************************************************

                    xk=(   0.50000,   0.16672,   0.00000  )

     zone border point and non-symmorphic group 
     symmetry decomposition not available

 **************************************************************************

 **************************************************************************

                    xk=(   0.50000,   0.19054,   0.00000  )

     zone border point and non-symmorphic group 
     symmetry decomposition not available

 **************************************************************************

 **************************************************************************

                    xk=(   0.50000,   0.21436,   0.00000  )

     zone border point and non-symmorphic group 
     symmetry decomposition not available

 **************************************************************************

 **************************************************************************

                    xk=(   0.50000,   0.23818,   0.00000  )

     zone border point and non-symmorphic group 
     symmetry decomposition not available

 **************************************************************************

 **************************************************************************

                    xk=(   0.50000,   0.26199,   0.00000  )

     zone border point and non-symmorphic group 
     symmetry decomposition not available

 **************************************************************************

 **************************************************************************

                    xk=(   0.50000,   0.28581,   0.00000  )

     zone border point and non-symmorphic group 
     symmetry decomposition not available

 **************************************************************************

 **************************************************************************

                    xk=(   0.50000,   0.30963,   0.00000  )

     zone border point and non-symmorphic group 
     symmetry decomposition not available

 **************************************************************************

 **************************************************************************

                    xk=(   0.50000,   0.33345,   0.00000  )

     zone border point and non-symmorphic group 
     symmetry decomposition not available

 **************************************************************************

 **************************************************************************

                    xk=(   0.50000,   0.35726,   0.00000  )

     zone border point and non-symmorphic group 
     symmetry decomposition not available

 **************************************************************************

 **************************************************************************

                    xk=(   0.50000,   0.38108,   0.00000  )

     zone border point and non-symmorphic group 
     symmetry decomposition not available

 **************************************************************************

 **************************************************************************

                    xk=(   0.50000,   0.40490,   0.00000  )

     zone border point and non-symmorphic group 
     symmetry decomposition not available

 **************************************************************************

 **************************************************************************

                    xk=(   0.50000,   0.42872,   0.00000  )

     zone border point and non-symmorphic group 
     symmetry decomposition not available

 **************************************************************************

 **************************************************************************

                    xk=(   0.50000,   0.45253,   0.00000  )

     zone border point and non-symmorphic group 
     symmetry decomposition not available

 **************************************************************************

 **************************************************************************

                    xk=(   0.50000,   0.47635,   0.00000  )

     zone border point and non-symmorphic group 
     symmetry decomposition not available

 **************************************************************************

 **************************************************************************

                    xk=(   0.47500,   0.47635,   0.00000  )

     double point group C_1 (1)    
     there are  2 classes and  1 irreducible representations
     the character table:

       E     -E   
                  
G_2    1.00 -1.00

     the symmetry operations in each class and the name of the first element:

     E             1
                                                                 
     -E           -1
                                                                 

     Band symmetry, C_1 (1)     double point group:

     e(  1 -  2) =    -22.20649  eV     2   -->   2 G_2            
     e(  3 -  4) =    -22.20633  eV     2   -->   2 G_2            
     e(  5 -  6) =    -22.16604  eV     2   -->   2 G_2            
     e(  7 -  8) =    -22.16587  eV     2   -->   2 G_2            
     e(  9 - 12) =    -22.14691  eV     4   -->   4 G_2            
     e( 13 - 16) =    -22.12803  eV     4   -->   4 G_2            
     e( 17 - 18) =    -22.11255  eV     2   -->   2 G_2            
     e( 19 - 20) =    -22.11243  eV     2   -->   2 G_2            
     e( 21 - 22) =    -13.13252  eV     2   -->   2 G_2            
     e( 23 - 24) =    -13.13237  eV     2   -->   2 G_2            
     e( 25 - 28) =     -7.44694  eV     4   -->   4 G_2            
     e( 29 - 32) =     -5.68270  eV     4   -->   4 G_2            
     e( 33 - 36) =     -4.50581  eV     4   -->   4 G_2            
     e( 37 - 40) =     -2.78675  eV     4   -->   4 G_2            
     e( 41 - 44) =      2.33907  eV     4   -->   4 G_2            
     e( 45 - 48) =      3.23583  eV     4   -->   4 G_2            

 **************************************************************************

 **************************************************************************

                    xk=(   0.45000,   0.47635,   0.00000  )

     Band symmetry, C_1 (1)     double point group:

     e(  1 -  2) =    -22.20614  eV     2   -->   2 G_2            
     e(  3 -  4) =    -22.20597  eV     2   -->   2 G_2            
     e(  5 -  6) =    -22.16636  eV     2   -->   2 G_2            
     e(  7 -  8) =    -22.16619  eV     2   -->   2 G_2            
     e(  9 - 10) =    -22.14688  eV     2   -->   2 G_2            
     e( 11 - 12) =    -22.14678  eV     2   -->   2 G_2            
     e( 13 - 16) =    -22.12804  eV     4   -->   4 G_2            
     e( 17 - 18) =    -22.11267  eV     2   -->   2 G_2            
     e( 19 - 20) =    -22.11254  eV     2   -->   2 G_2            
     e( 21 - 22) =    -13.14100  eV     2   -->   2 G_2            
     e( 23 - 24) =    -13.14085  eV     2   -->   2 G_2            
     e( 25 - 28) =     -7.46132  eV     4   -->   4 G_2            
     e( 29 - 32) =     -5.67256  eV     4   -->   4 G_2            
     e( 33 - 36) =     -4.44825  eV     4   -->   4 G_2            
     e( 37 - 40) =     -2.78807  eV     4   -->   4 G_2            
     e( 41 - 44) =      2.31184  eV     4   -->   4 G_2            
     e( 45 - 48) =      3.21476  eV     4   -->   4 G_2            

 **************************************************************************

 **************************************************************************

                    xk=(   0.42500,   0.47635,   0.00000  )

     Band symmetry, C_1 (1)     double point group:

     e(  1 -  2) =    -22.20554  eV     2   -->   2 G_2            
     e(  3 -  4) =    -22.20537  eV     2   -->   2 G_2            
     e(  5 -  6) =    -22.16686  eV     2   -->   2 G_2            
     e(  7 -  8) =    -22.16669  eV     2   -->   2 G_2            
     e(  9 - 10) =    -22.14682  eV     2   -->   2 G_2            
     e( 11 - 12) =    -22.14672  eV     2   -->   2 G_2            
     e( 13 - 16) =    -22.12804  eV     4   -->   4 G_2            
     e( 17 - 18) =    -22.11285  eV     2   -->   2 G_2            
     e( 19 - 20) =    -22.11272  eV     2   -->   2 G_2            
     e( 21 - 22) =    -13.15482  eV     2   -->   2 G_2            
     e( 23 - 24) =    -13.15466  eV     2   -->   2 G_2            
     e( 25 - 28) =     -7.48545  eV     4   -->   4 G_2            
     e( 29 - 32) =     -5.65078  eV     4   -->   4 G_2            
     e( 33 - 36) =     -4.35852  eV     4   -->   4 G_2            
     e( 37 - 40) =     -2.78909  eV     4   -->   4 G_2            
     e( 41 - 44) =      2.26611  eV     4   -->   4 G_2            
     e( 45 - 48) =      3.18626  eV     4   -->   4 G_2            

 **************************************************************************

 **************************************************************************

                    xk=(   0.40000,   0.47635,   0.00000  )

     Band symmetry, C_1 (1)     double point group:

     e(  1 -  2) =    -22.20472  eV     2   -->   2 G_2            
     e(  3 -  4) =    -22.20455  eV     2   -->   2 G_2            
     e(  5 -  6) =    -22.16757  eV     2   -->   2 G_2            
     e(  7 -  8) =    -22.16739  eV     2   -->   2 G_2            
     e(  9 - 10) =    -22.14676  eV     2   -->   2 G_2            
     e( 11 - 12) =    -22.14665  eV     2   -->   2 G_2            
     e( 13 - 16) =    -22.12802  eV     4   -->   4 G_2            
     e( 17 - 18) =    -22.11309  eV     2   -->   2 G_2            
     e( 19 - 20) =    -22.11297  eV     2   -->   2 G_2            
     e( 21 - 22) =    -13.17349  eV     2   -->   2 G_2            
     e( 23 - 24) =    -13.17334  eV     2   -->   2 G_2            
     e( 25 - 26) =     -7.51917  eV     2   -->   2 G_2            
     e( 27 - 28) =     -7.51907  eV     2   -->   2 G_2            
     e( 29 - 32) =     -5.61250  eV     4   -->   4 G_2            
     e( 33 - 36) =     -4.24405  eV     4   -->   4 G_2            
     e( 37 - 40) =     -2.78788  eV     4   -->   4 G_2            
     e( 41 - 44) =      2.20215  eV     4   -->   4 G_2            
     e( 45 - 48) =      3.15305  eV     4   -->   4 G_2            

 **************************************************************************

 **************************************************************************

                    xk=(   0.37500,   0.47635,   0.00000  )

     Band symmetry, C_1 (1)     double point group:

     e(  1 -  2) =    -22.20370  eV     2   -->   2 G_2            
     e(  3 -  4) =    -22.20354  eV     2   -->   2 G_2            
     e(  5 -  6) =    -22.16846  eV     2   -->   2 G_2            
     e(  7 -  8) =    -22.16828  eV     2   -->   2 G_2            
     e(  9 - 10) =    -22.14668  eV     2   -->   2 G_2            
     e( 11 - 12) =    -22.14657  eV     2   -->   2 G_2            
     e( 13 - 16) =    -22.12798  eV     4   -->   4 G_2            
     e( 17 - 18) =    -22.11339  eV     2   -->   2 G_2            
     e( 19 - 20) =    -22.11327  eV     2   -->   2 G_2            
     e( 21 - 22) =    -13.19641  eV     2   -->   2 G_2            
     e( 23 - 24) =    -13.19626  eV     2   -->   2 G_2            
     e( 25 - 26) =     -7.56180  eV     2   -->   2 G_2            
     e( 27 - 28) =     -7.56169  eV     2   -->   2 G_2            
     e( 29 - 32) =     -5.55397  eV     4   -->   4 G_2            
     e( 33 - 36) =     -4.11306  eV     4   -->   4 G_2            
     e( 37 - 40) =     -2.78138  eV     4   -->   4 G_2            
     e( 41 - 44) =      2.12108  eV     4   -->   4 G_2            
     e( 45 - 48) =      3.11289  eV     4   -->   4 G_2            

 **************************************************************************

 **************************************************************************

                    xk=(   0.35000,   0.47635,   0.00000  )

     Band symmetry, C_1 (1)     double point group:

     e(  1 -  2) =    -22.20251  eV     2   -->   2 G_2            
     e(  3 -  4) =    -22.20234  eV     2   -->   2 G_2            
     e(  5 -  6) =    -22.16951  eV     2   -->   2 G_2            
     e(  7 -  8) =    -22.16934  eV     2   -->   2 G_2            
     e(  9 - 10) =    -22.14660  eV     2   -->   2 G_2            
     e( 11 - 12) =    -22.14649  eV     2   -->   2 G_2            
     e( 13 - 16) =    -22.12790  eV     4   -->   4 G_2            
     e( 17 - 18) =    -22.11374  eV     2   -->   2 G_2            
     e( 19 - 20) =    -22.11362  eV     2   -->   2 G_2            
     e( 21 - 22) =    -13.22285  eV     2   -->   2 G_2            
     e( 23 - 24) =    -13.22270  eV     2   -->   2 G_2            
     e( 25 - 26) =     -7.61201  eV     2   -->   2 G_2            
     e( 27 - 28) =     -7.61190  eV     2   -->   2 G_2            
     e( 29 - 32) =     -5.47319  eV     4   -->   4 G_2            
     e( 33 - 36) =     -3.97448  eV     4   -->   4 G_2            
     e( 37 - 40) =     -2.76501  eV     4   -->   4 G_2            
     e( 41 - 44) =      2.02445  eV     4   -->   4 G_2            
     e( 45 - 48) =      3.05963  eV     4   -->   4 G_2            

 **************************************************************************

 **************************************************************************

                    xk=(   0.32500,   0.47635,   0.00000  )

     Band symmetry, C_1 (1)     double point group:

     e(  1 -  2) =    -22.20116  eV     2   -->   2 G_2            
     e(  3 -  4) =    -22.20100  eV     2   -->   2 G_2            
     e(  5 -  6) =    -22.17071  eV     2   -->   2 G_2            
     e(  7 -  8) =    -22.17054  eV     2   -->   2 G_2            
     e(  9 - 10) =    -22.14653  eV     2   -->   2 G_2            
     e( 11 - 12) =    -22.14642  eV     2   -->   2 G_2            
     e( 13 - 16) =    -22.12778  eV     4   -->   4 G_2            
     e( 17 - 18) =    -22.11412  eV     2   -->   2 G_2            
     e( 19 - 20) =    -22.11401  eV     2   -->   2 G_2            
     e( 21 - 22) =    -13.25201  eV     2   -->   2 G_2            
     e( 23 - 24) =    -13.25186  eV     2   -->   2 G_2            
     e( 25 - 26) =     -7.66797  eV     2   -->   2 G_2            
     e( 27 - 28) =     -7.66786  eV     2   -->   2 G_2            
     e( 29 - 32) =     -5.36983  eV     4   -->   4 G_2            
     e( 33 - 36) =     -3.83828  eV     4   -->   4 G_2            
     e( 37 - 40) =     -2.73231  eV     4   -->   4 G_2            
     e( 41 - 44) =      1.91353  eV     4   -->   4 G_2            
     e( 45 - 48) =      2.98626  eV     4   -->   4 G_2            

 **************************************************************************

 **************************************************************************

                    xk=(   0.30000,   0.47635,   0.00000  )

     Band symmetry, C_1 (1)     double point group:

     e(  1 -  2) =    -22.19970  eV     2   -->   2 G_2            
     e(  3 -  4) =    -22.19954  eV     2   -->   2 G_2            
     e(  5 -  6) =    -22.17204  eV     2   -->   2 G_2            
     e(  7 -  8) =    -22.17187  eV     2   -->   2 G_2            
     e(  9 - 10) =    -22.14649  eV     2   -->   2 G_2            
     e( 11 - 12) =    -22.14637  eV     2   -->   2 G_2            
     e( 13 - 16) =    -22.12761  eV     4   -->   4 G_2            
     e( 17 - 18) =    -22.11454  eV     2   -->   2 G_2            
     e( 19 - 20) =    -22.11443  eV     2   -->   2 G_2            
     e( 21 - 22) =    -13.28305  eV     2   -->   2 G_2            
     e( 23 - 24) =    -13.28290  eV     2   -->   2 G_2            
     e( 25 - 26) =     -7.72761  eV     2   -->   2 G_2            
     e( 27 - 28) =     -7.72750  eV     2   -->   2 G_2            
     e( 29 - 30) =     -5.24481  eV     2   -->   2 G_2            
     e( 31 - 32) =     -5.24470  eV     2   -->   2 G_2            
     e( 33 - 36) =     -3.71531  eV     4   -->   4 G_2            
     e( 37 - 40) =     -2.67539  eV     4   -->   4 G_2            
     e( 41 - 44) =      1.78888  eV     4   -->   4 G_2            
     e( 45 - 48) =      2.88872  eV     4   -->   4 G_2            

 **************************************************************************

 **************************************************************************

                    xk=(   0.27500,   0.47635,   0.00000  )

     Band symmetry, C_1 (1)     double point group:

     e(  1 -  2) =    -22.19815  eV     2   -->   2 G_2            
     e(  3 -  4) =    -22.19798  eV     2   -->   2 G_2            
     e(  5 -  6) =    -22.17346  eV     2   -->   2 G_2            
     e(  7 -  8) =    -22.17329  eV     2   -->   2 G_2            
     e(  9 - 10) =    -22.14647  eV     2   -->   2 G_2            
     e( 11 - 12) =    -22.14634  eV     2   -->   2 G_2            
     e( 13 - 16) =    -22.12737  eV     4   -->   4 G_2            
     e( 17 - 18) =    -22.11498  eV     2   -->   2 G_2            
     e( 19 - 20) =    -22.11487  eV     2   -->   2 G_2            
     e( 21 - 22) =    -13.31512  eV     2   -->   2 G_2            
     e( 23 - 24) =    -13.31497  eV     2   -->   2 G_2            
     e( 25 - 26) =     -7.78885  eV     2   -->   2 G_2            
     e( 27 - 28) =     -7.78874  eV     2   -->   2 G_2            
     e( 29 - 30) =     -5.09991  eV     2   -->   2 G_2            
     e( 31 - 32) =     -5.09980  eV     2   -->   2 G_2            
     e( 33 - 36) =     -3.61527  eV     4   -->   4 G_2            
     e( 37 - 40) =     -2.58728  eV     4   -->   4 G_2            
     e( 41 - 44) =      1.65032  eV     4   -->   4 G_2            
     e( 45 - 48) =      2.76887  eV     4   -->   4 G_2            

 **************************************************************************

 **************************************************************************

                    xk=(   0.25000,   0.47635,   0.00000  )

     Band symmetry, C_1 (1)     double point group:

     e(  1 -  2) =    -22.19656  eV     2   -->   2 G_2            
     e(  3 -  4) =    -22.19639  eV     2   -->   2 G_2            
     e(  5 -  6) =    -22.17494  eV     2   -->   2 G_2            
     e(  7 -  8) =    -22.17477  eV     2   -->   2 G_2            
     e(  9 - 10) =    -22.14648  eV     2   -->   2 G_2            
     e( 11 - 12) =    -22.14634  eV     2   -->   2 G_2            
     e( 13 - 16) =    -22.12707  eV     4   -->   4 G_2            
     e( 17 - 18) =    -22.11545  eV     2   -->   2 G_2            
     e( 19 - 20) =    -22.11534  eV     2   -->   2 G_2            
     e( 21 - 22) =    -13.34740  eV     2   -->   2 G_2            
     e( 23 - 24) =    -13.34725  eV     2   -->   2 G_2            
     e( 25 - 26) =     -7.84979  eV     2   -->   2 G_2            
     e( 27 - 28) =     -7.84968  eV     2   -->   2 G_2            
     e( 29 - 30) =     -4.93747  eV     2   -->   2 G_2            
     e( 31 - 32) =     -4.93736  eV     2   -->   2 G_2            
     e( 33 - 36) =     -3.54286  eV     4   -->   4 G_2            
     e( 37 - 38) =     -2.46610  eV     2   -->   2 G_2            
     e( 39 - 40) =     -2.46599  eV     2   -->   2 G_2            
     e( 41 - 44) =      1.49756  eV     4   -->   4 G_2            
     e( 45 - 48) =      2.63441  eV     4   -->   4 G_2            

 **************************************************************************

 **************************************************************************

                    xk=(   0.22500,   0.47635,   0.00000  )

     Band symmetry, C_1 (1)     double point group:

     e(  1 -  2) =    -22.19495  eV     2   -->   2 G_2            
     e(  3 -  4) =    -22.19479  eV     2   -->   2 G_2            
     e(  5 -  6) =    -22.17643  eV     2   -->   2 G_2            
     e(  7 -  8) =    -22.17627  eV     2   -->   2 G_2            
     e(  9 - 10) =    -22.14652  eV     2   -->   2 G_2            
     e( 11 - 12) =    -22.14638  eV     2   -->   2 G_2            
     e( 13 - 16) =    -22.12670  eV     4   -->   4 G_2            
     e( 17 - 18) =    -22.11593  eV     2   -->   2 G_2            
     e( 19 - 20) =    -22.11582  eV     2   -->   2 G_2            
     e( 21 - 22) =    -13.37908  eV     2   -->   2 G_2            
     e( 23 - 24) =    -13.37893  eV     2   -->   2 G_2            
     e( 25 - 26) =     -7.90878  eV     2   -->   2 G_2            
     e( 27 - 28) =     -7.90867  eV     2   -->   2 G_2            
     e( 29 - 30) =     -4.76029  eV     2   -->   2 G_2            
     e( 31 - 32) =     -4.76018  eV     2   -->   2 G_2            
     e( 33 - 36) =     -3.49588  eV     4   -->   4 G_2            
     e( 37 - 38) =     -2.31739  eV     2   -->   2 G_2            
     e( 39 - 40) =     -2.31727  eV     2   -->   2 G_2            
     e( 41 - 44) =      1.33149  eV     4   -->   4 G_2            
     e( 45 - 48) =      2.49565  eV     4   -->   4 G_2            

 **************************************************************************

 **************************************************************************

                    xk=(   0.20000,   0.47635,   0.00000  )

     Band symmetry, C_1 (1)     double point group:

     e(  1 -  2) =    -22.19339  eV     2   -->   2 G_2            
     e(  3 -  4) =    -22.19323  eV     2   -->   2 G_2            
     e(  5 -  6) =    -22.17791  eV     2   -->   2 G_2            
     e(  7 -  8) =    -22.17775  eV     2   -->   2 G_2            
     e(  9 - 10) =    -22.14660  eV     2   -->   2 G_2            
     e( 11 - 12) =    -22.14645  eV     2   -->   2 G_2            
     e( 13 - 16) =    -22.12628  eV     4   -->   4 G_2            
     e( 17 - 20) =    -22.11643  eV     4   -->   4 G_2            
     e( 21 - 22) =    -13.40945  eV     2   -->   2 G_2            
     e( 23 - 24) =    -13.40930  eV     2   -->   2 G_2            
     e( 25 - 26) =     -7.96444  eV     2   -->   2 G_2            
     e( 27 - 28) =     -7.96432  eV     2   -->   2 G_2            
     e( 29 - 30) =     -4.57172  eV     2   -->   2 G_2            
     e( 31 - 32) =     -4.57161  eV     2   -->   2 G_2            
     e( 33 - 36) =     -3.46767  eV     4   -->   4 G_2            
     e( 37 - 38) =     -2.15208  eV     2   -->   2 G_2            
     e( 39 - 40) =     -2.15195  eV     2   -->   2 G_2            
     e( 41 - 44) =      1.15579  eV     4   -->   4 G_2            
     e( 45 - 48) =      2.36165  eV     4   -->   4 G_2            

 **************************************************************************

 **************************************************************************

                    xk=(   0.17500,   0.47635,   0.00000  )

     Band symmetry, C_1 (1)     double point group:

     e(  1 -  2) =    -22.19189  eV     2   -->   2 G_2            
     e(  3 -  4) =    -22.19174  eV     2   -->   2 G_2            
     e(  5 -  6) =    -22.17933  eV     2   -->   2 G_2            
     e(  7 -  8) =    -22.17917  eV     2   -->   2 G_2            
     e(  9 - 10) =    -22.14669  eV     2   -->   2 G_2            
     e( 11 - 12) =    -22.14653  eV     2   -->   2 G_2            
     e( 13 - 16) =    -22.12579  eV     4   -->   4 G_2            
     e( 17 - 20) =    -22.11693  eV     4   -->   4 G_2            
     e( 21 - 22) =    -13.43782  eV     2   -->   2 G_2            
     e( 23 - 24) =    -13.43767  eV     2   -->   2 G_2            
     e( 25 - 26) =     -8.01564  eV     2   -->   2 G_2            
     e( 27 - 28) =     -8.01553  eV     2   -->   2 G_2            
     e( 29 - 30) =     -4.37601  eV     2   -->   2 G_2            
     e( 31 - 32) =     -4.37590  eV     2   -->   2 G_2            
     e( 33 - 36) =     -3.45054  eV     4   -->   4 G_2            
     e( 37 - 38) =     -1.98344  eV     2   -->   2 G_2            
     e( 39 - 40) =     -1.98331  eV     2   -->   2 G_2            
     e( 41 - 44) =      0.97822  eV     4   -->   4 G_2            
     e( 45 - 48) =      2.23786  eV     4   -->   4 G_2            

 **************************************************************************

 **************************************************************************

                    xk=(   0.15000,   0.47635,   0.00000  )

     Band symmetry, C_1 (1)     double point group:

     e(  1 -  2) =    -22.19051  eV     2   -->   2 G_2            
     e(  3 -  4) =    -22.19036  eV     2   -->   2 G_2            
     e(  5 -  6) =    -22.18063  eV     2   -->   2 G_2            
     e(  7 -  8) =    -22.18047  eV     2   -->   2 G_2            
     e(  9 - 10) =    -22.14680  eV     2   -->   2 G_2            
     e( 11 - 12) =    -22.14664  eV     2   -->   2 G_2            
     e( 13 - 16) =    -22.12526  eV     4   -->   4 G_2            
     e( 17 - 20) =    -22.11745  eV     4   -->   4 G_2            
     e( 21 - 22) =    -13.46361  eV     2   -->   2 G_2            
     e( 23 - 24) =    -13.46346  eV     2   -->   2 G_2            
     e( 25 - 26) =     -8.06151  eV     2   -->   2 G_2            
     e( 27 - 28) =     -8.06140  eV     2   -->   2 G_2            
     e( 29 - 30) =     -4.17917  eV     2   -->   2 G_2            
     e( 31 - 32) =     -4.17905  eV     2   -->   2 G_2            
     e( 33 - 36) =     -3.43711  eV     4   -->   4 G_2            
     e( 37 - 38) =     -1.82602  eV     2   -->   2 G_2            
     e( 39 - 40) =     -1.82588  eV     2   -->   2 G_2            
     e( 41 - 44) =      0.81106  eV     4   -->   4 G_2            
     e( 45 - 48) =      2.12569  eV     4   -->   4 G_2            

 **************************************************************************

 **************************************************************************

                    xk=(   0.12500,   0.47635,   0.00000  )

     Band symmetry, C_1 (1)     double point group:

     e(  1 -  2) =    -22.18929  eV     2   -->   2 G_2            
     e(  3 -  4) =    -22.18915  eV     2   -->   2 G_2            
     e(  5 -  6) =    -22.18178  eV     2   -->   2 G_2            
     e(  7 -  8) =    -22.18163  eV     2   -->   2 G_2            
     e(  9 - 10) =    -22.14692  eV     2   -->   2 G_2            
     e( 11 - 12) =    -22.14676  eV     2   -->   2 G_2            
     e( 13 - 14) =    -22.12471  eV     2   -->   2 G_2            
     e( 15 - 16) =    -22.12461  eV     2   -->   2 G_2            
     e( 17 - 20) =    -22.11798  eV     4   -->   4 G_2            
     e( 21 - 22) =    -13.48631  eV     2   -->   2 G_2            
     e( 23 - 24) =    -13.48616  eV     2   -->   2 G_2            
     e( 25 - 26) =     -8.10133  eV     2   -->   2 G_2            
     e( 27 - 28) =     -8.10122  eV     2   -->   2 G_2            
     e( 29 - 30) =     -3.99073  eV     2   -->   2 G_2            
     e( 31 - 32) =     -3.99061  eV     2   -->   2 G_2            
     e( 33 - 36) =     -3.41908  eV     4   -->   4 G_2            
     e( 37 - 38) =     -1.69541  eV     2   -->   2 G_2            
     e( 39 - 40) =     -1.69527  eV     2   -->   2 G_2            
     e( 41 - 44) =      0.67024  eV     4   -->   4 G_2            
     e( 45 - 48) =      2.02335  eV     4   -->   4 G_2            

 **************************************************************************

 **************************************************************************

                    xk=(   0.10000,   0.47635,   0.00000  )

     Band symmetry, C_1 (1)     double point group:

     e(  1 -  2) =    -22.18827  eV     2   -->   2 G_2            
     e(  3 -  4) =    -22.18814  eV     2   -->   2 G_2            
     e(  5 -  6) =    -22.18272  eV     2   -->   2 G_2            
     e(  7 -  8) =    -22.18258  eV     2   -->   2 G_2            
     e(  9 - 10) =    -22.14705  eV     2   -->   2 G_2            
     e( 11 - 12) =    -22.14688  eV     2   -->   2 G_2            
     e( 13 - 14) =    -22.12415  eV     2   -->   2 G_2            
     e( 15 - 16) =    -22.12404  eV     2   -->   2 G_2            
     e( 17 - 18) =    -22.11850  eV     2   -->   2 G_2            
     e( 19 - 20) =    -22.11840  eV     2   -->   2 G_2            
     e( 21 - 22) =    -13.50547  eV     2   -->   2 G_2            
     e( 23 - 24) =    -13.50532  eV     2   -->   2 G_2            
     e( 25 - 26) =     -8.13457  eV     2   -->   2 G_2            
     e( 27 - 28) =     -8.13446  eV     2   -->   2 G_2            
     e( 29 - 30) =     -3.82711  eV     2   -->   2 G_2            
     e( 31 - 32) =     -3.82700  eV     2   -->   2 G_2            
     e( 33 - 36) =     -3.38434  eV     4   -->   4 G_2            
     e( 37 - 38) =     -1.60637  eV     2   -->   2 G_2            
     e( 39 - 40) =     -1.60624  eV     2   -->   2 G_2            
     e( 41 - 44) =      0.57215  eV     4   -->   4 G_2            
     e( 45 - 48) =      1.92696  eV     4   -->   4 G_2            

 **************************************************************************

 **************************************************************************

                    xk=(   0.07500,   0.47635,   0.00000  )

     Band symmetry, C_1 (1)     double point group:

     e(  1 -  2) =    -22.18752  eV     2   -->   2 G_2            
     e(  3 -  4) =    -22.18739  eV     2   -->   2 G_2            
     e(  5 -  6) =    -22.18342  eV     2   -->   2 G_2            
     e(  7 -  8) =    -22.18330  eV     2   -->   2 G_2            
     e(  9 - 10) =    -22.14715  eV     2   -->   2 G_2            
     e( 11 - 12) =    -22.14698  eV     2   -->   2 G_2            
     e( 13 - 14) =    -22.12361  eV     2   -->   2 G_2            
     e( 15 - 16) =    -22.12349  eV     2   -->   2 G_2            
     e( 17 - 18) =    -22.11902  eV     2   -->   2 G_2            
     e( 19 - 20) =    -22.11890  eV     2   -->   2 G_2            
     e( 21 - 22) =    -13.52074  eV     2   -->   2 G_2            
     e( 23 - 24) =    -13.52059  eV     2   -->   2 G_2            
     e( 25 - 26) =     -8.16081  eV     2   -->   2 G_2            
     e( 27 - 28) =     -8.16070  eV     2   -->   2 G_2            
     e( 29 - 32) =     -3.71074  eV     4   -->   4 G_2            
     e( 33 - 34) =     -3.31863  eV     2   -->   2 G_2            
     e( 35 - 36) =     -3.31852  eV     2   -->   2 G_2            
     e( 37 - 38) =     -1.56657  eV     2   -->   2 G_2            
     e( 39 - 40) =     -1.56644  eV     2   -->   2 G_2            
     e( 41 - 44) =      0.52634  eV     4   -->   4 G_2            
     e( 45 - 48) =      1.83294  eV     4   -->   4 G_2            

 **************************************************************************

 **************************************************************************

                    xk=(   0.05000,   0.47635,   0.00000  )

     Band symmetry, C_1 (1)     double point group:

     e(  1 -  2) =    -22.18706  eV     2   -->   2 G_2            
     e(  3 -  4) =    -22.18691  eV     2   -->   2 G_2            
     e(  5 -  6) =    -22.18386  eV     2   -->   2 G_2            
     e(  7 -  8) =    -22.18372  eV     2   -->   2 G_2            
     e(  9 - 10) =    -22.14724  eV     2   -->   2 G_2            
     e( 11 - 12) =    -22.14707  eV     2   -->   2 G_2            
     e( 13 - 14) =    -22.12311  eV     2   -->   2 G_2            
     e( 15 - 16) =    -22.12297  eV     2   -->   2 G_2            
     e( 17 - 18) =    -22.11949  eV     2   -->   2 G_2            
     e( 19 - 20) =    -22.11936  eV     2   -->   2 G_2            
     e( 21 - 22) =    -13.53184  eV     2   -->   2 G_2            
     e( 23 - 24) =    -13.53169  eV     2   -->   2 G_2            
     e( 25 - 26) =     -8.17976  eV     2   -->   2 G_2            
     e( 27 - 28) =     -8.17964  eV     2   -->   2 G_2            
     e( 29 - 32) =     -3.64860  eV     4   -->   4 G_2            
     e( 33 - 34) =     -3.22815  eV     2   -->   2 G_2            
     e( 35 - 36) =     -3.22801  eV     2   -->   2 G_2            
     e( 37 - 38) =     -1.56848  eV     2   -->   2 G_2            
     e( 39 - 40) =     -1.56836  eV     2   -->   2 G_2            
     e( 41 - 44) =      0.52648  eV     4   -->   4 G_2            
     e( 45 - 46) =      1.74349  eV     2   -->   2 G_2            
     e( 47 - 48) =      1.74361  eV     2   -->   2 G_2            

 **************************************************************************

 **************************************************************************

                    xk=(   0.02500,   0.47635,   0.00000  )

     Band symmetry, C_1 (1)     double point group:

     e(  1 -  2) =    -22.18686  eV     2   -->   2 G_2            
     e(  3 -  4) =    -22.18669  eV     2   -->   2 G_2            
     e(  5 -  6) =    -22.18406  eV     2   -->   2 G_2            
     e(  7 -  8) =    -22.18389  eV     2   -->   2 G_2            
     e(  9 - 10) =    -22.14729  eV     2   -->   2 G_2            
     e( 11 - 12) =    -22.14712  eV     2   -->   2 G_2            
     e( 13 - 14) =    -22.12273  eV     2   -->   2 G_2            
     e( 15 - 16) =    -22.12256  eV     2   -->   2 G_2            
     e( 17 - 18) =    -22.11987  eV     2   -->   2 G_2            
     e( 19 - 20) =    -22.11971  eV     2   -->   2 G_2            
     e( 21 - 22) =    -13.53858  eV     2   -->   2 G_2            
     e( 23 - 24) =    -13.53843  eV     2   -->   2 G_2            
     e( 25 - 26) =     -8.19120  eV     2   -->   2 G_2            
     e( 27 - 28) =     -8.19108  eV     2   -->   2 G_2            
     e( 29 - 32) =     -3.62235  eV     4   -->   4 G_2            
     e( 33 - 34) =     -3.14960  eV     2   -->   2 G_2            
     e( 35 - 36) =     -3.14945  eV     2   -->   2 G_2            
     e( 37 - 38) =     -1.58860  eV     2   -->   2 G_2            
     e( 39 - 40) =     -1.58848  eV     2   -->   2 G_2            
     e( 41 - 44) =      0.54821  eV     4   -->   4 G_2            
     e( 45 - 46) =      1.67325  eV     2   -->   2 G_2            
     e( 47 - 48) =      1.67339  eV     2   -->   2 G_2            

 **************************************************************************

 **************************************************************************

                    xk=(   0.00000,   0.47635,   0.00000  )

     double point group C_s (m)    
     there are  4 classes and  2 irreducible representations
     the character table:

       E     -E    s     -s   
                              
G_3    1.00 -1.00  0.00  0.00
G_4    1.00 -1.00  0.00  0.00

     imaginary part

       E     -E    s     -s   
                              
G_3    0.00  0.00  1.00 -1.00
[...]
     e(  3 -  4) =    -22.18572  eV     2   --> G_4            
     e(  5 -  6) =    -22.18162  eV     2   --> G_3            
     e(  5 -  6) =    -22.18162  eV     2   --> G_4            
     e(  7 -  8) =    -22.17533  eV     2   --> G_3            
     e(  7 -  8) =    -22.17533  eV     2   --> G_4            
     e(  9 - 10) =    -22.16781  eV     2   --> G_3            
     e(  9 - 10) =    -22.16781  eV     2   --> G_4            
     e( 11 - 12) =    -22.14192  eV     2   --> G_3            
     e( 11 - 12) =    -22.14192  eV     2   --> G_4            
     e( 13 - 14) =    -22.12998  eV     2   --> G_3            
     e( 13 - 14) =    -22.12998  eV     2   --> G_4            
     e( 15 - 16) =    -22.12550  eV     2   --> G_3            
     e( 15 - 16) =    -22.12550  eV     2   --> G_4            
     e( 17 - 18) =    -22.11650  eV     2   --> G_3            
     e( 17 - 18) =    -22.11650  eV     2   --> G_4            
     e( 19 - 20) =    -22.11177  eV     2   --> G_3            
     e( 19 - 20) =    -22.11177  eV     2   --> G_4            
     e( 21 - 22) =    -14.40283  eV     2   --> G_3            
     e( 21 - 22) =    -14.40283  eV     2   --> G_4            
     e( 23 - 24) =    -13.05964  eV     2   --> G_3            
     e( 23 - 24) =    -13.05964  eV     2   --> G_4            
     e( 25 - 26) =     -7.80196  eV     2   --> G_3            
     e( 25 - 26) =     -7.80196  eV     2   --> G_4            
     e( 27 - 28) =     -6.13942  eV     2   --> G_3            
     e( 27 - 28) =     -6.13942  eV     2   --> G_4            
     e( 29 - 30) =     -4.77979  eV     2   --> G_3            
     e( 29 - 30) =     -4.77979  eV     2   --> G_4            
     e( 31 - 32) =     -4.20204  eV     2   --> G_3            
     e( 31 - 32) =     -4.20204  eV     2   --> G_4            
     e( 33 - 34) =     -4.17404  eV     2   --> G_3            
     e( 33 - 34) =     -4.17404  eV     2   --> G_4            
     e( 35 - 36) =     -2.96574  eV     2   --> G_3            
     e( 35 - 36) =     -2.96574  eV     2   --> G_4            
     e( 37 - 38) =     -2.60331  eV     2   --> G_3            
     e( 37 - 38) =     -2.60331  eV     2   --> G_4            
     e( 39 - 40) =     -1.56567  eV     2   --> G_3            
     e( 39 - 40) =     -1.56567  eV     2   --> G_4            
     e( 41 - 42) =      0.54177  eV     2   --> G_3            
     e( 41 - 42) =      0.54177  eV     2   --> G_4            
     e( 43 - 44) =      2.08128  eV     2   --> G_3            
     e( 43 - 44) =      2.08128  eV     2   --> G_4            
     e( 45 - 46) =      2.18535  eV     2   --> G_3            
     e( 45 - 46) =      2.18535  eV     2   --> G_4            
     e( 47 - 48) =      2.83698  eV     2   --> G_3            
     e( 47 - 48) =      2.83698  eV     2   --> G_4            

 **************************************************************************

 **************************************************************************

                    xk=(   0.00000,   0.09527,   0.00000  )

     Band symmetry, C_s (m)     double point group:

     e(  1 -  2) =    -22.19569  eV     2   --> G_3            
     e(  1 -  2) =    -22.19569  eV     2   --> G_4            
     e(  3 -  4) =    -22.18591  eV     2   --> G_3            
     e(  3 -  4) =    -22.18591  eV     2   --> G_4            
     e(  5 -  6) =    -22.18139  eV     2   --> G_3            
     e(  5 -  6) =    -22.18139  eV     2   --> G_4            
     e(  7 -  8) =    -22.17488  eV     2   --> G_3            
     e(  7 -  8) =    -22.17488  eV     2   --> G_4            
     e(  9 - 10) =    -22.16872  eV     2   --> G_3            
     e(  9 - 10) =    -22.16872  eV     2   --> G_4            
     e( 11 - 12) =    -22.14191  eV     2   --> G_3            
     e( 11 - 12) =    -22.14191  eV     2   --> G_4            
     e( 13 - 14) =    -22.13024  eV     2   --> G_3            
     e( 13 - 14) =    -22.13024  eV     2   --> G_4            
     e( 15 - 16) =    -22.12559  eV     2   --> G_3            
     e( 15 - 16) =    -22.12559  eV     2   --> G_4            
     e( 17 - 18) =    -22.11633  eV     2   --> G_3            
     e( 17 - 18) =    -22.11633  eV     2   --> G_4            
     e( 19 - 20) =    -22.11145  eV     2   --> G_3            
     e( 19 - 20) =    -22.11145  eV     2   --> G_4            
     e( 21 - 22) =    -14.42923  eV     2   --> G_3            
     e( 21 - 22) =    -14.42923  eV     2   --> G_4            
     e( 23 - 24) =    -13.05655  eV     2   --> G_3            
     e( 23 - 24) =    -13.05655  eV     2   --> G_4            
     e( 25 - 26) =     -7.73481  eV     2   --> G_3            
     e( 25 - 26) =     -7.73481  eV     2   --> G_4            
     e( 27 - 28) =     -6.00342  eV     2   --> G_3            
     e( 27 - 28) =     -6.00342  eV     2   --> G_4            
     e( 29 - 30) =     -4.81880  eV     2   --> G_3            
     e( 29 - 30) =     -4.81880  eV     2   --> G_4            
     e( 31 - 32) =     -4.25006  eV     2   --> G_3            
     e( 31 - 32) =     -4.25006  eV     2   --> G_4            
     e( 33 - 34) =     -4.23694  eV     2   --> G_3            
     e( 33 - 34) =     -4.23694  eV     2   --> G_4            
     e( 35 - 36) =     -2.98145  eV     2   --> G_3            
     e( 35 - 36) =     -2.98145  eV     2   --> G_4            
     e( 37 - 38) =     -2.73008  eV     2   --> G_3            
     e( 37 - 38) =     -2.73008  eV     2   --> G_4            
     e( 39 - 40) =     -1.52403  eV     2   --> G_3            
     e( 39 - 40) =     -1.52403  eV     2   --> G_4            
     e( 41 - 42) =      0.49529  eV     2   --> G_3            
     e( 41 - 42) =      0.49529  eV     2   --> G_4            
     e( 43 - 44) =      2.15157  eV     2   --> G_3            
     e( 43 - 44) =      2.15157  eV     2   --> G_4            
     e( 45 - 46) =      2.26152  eV     2   --> G_3            
     e( 45 - 46) =      2.26152  eV     2   --> G_4            
     e( 47 - 48) =      2.80776  eV     2   --> G_3            
     e( 47 - 48) =      2.80776  eV     2   --> G_4            

 **************************************************************************

 **************************************************************************

                    xk=(   0.00000,   0.07145,   0.00000  )

     Band symmetry, C_s (m)     double point group:

     e(  1 -  2) =    -22.19594  eV     2   --> G_3            
     e(  1 -  2) =    -22.19594  eV     2   --> G_4            
     e(  3 -  4) =    -22.18607  eV     2   --> G_3            
     e(  3 -  4) =    -22.18607  eV     2   --> G_4            
     e(  5 -  6) =    -22.18120  eV     2   --> G_3            
     e(  5 -  6) =    -22.18120  eV     2   --> G_4            
     e(  7 -  8) =    -22.17453  eV     2   --> G_3            
     e(  7 -  8) =    -22.17453  eV     2   --> G_4            
     e(  9 - 10) =    -22.16944  eV     2   --> G_3            
     e(  9 - 10) =    -22.16944  eV     2   --> G_4            
     e( 11 - 12) =    -22.14190  eV     2   --> G_3            
     e( 11 - 12) =    -22.14190  eV     2   --> G_4            
     e( 13 - 14) =    -22.13044  eV     2   --> G_3            
     e( 13 - 14) =    -22.13044  eV     2   --> G_4            
     e( 15 - 16) =    -22.12566  eV     2   --> G_3            
     e( 15 - 16) =    -22.12566  eV     2   --> G_4            
     e( 17 - 18) =    -22.11621  eV     2   --> G_3            
     e( 17 - 18) =    -22.11621  eV     2   --> G_4            
     e( 19 - 20) =    -22.11121  eV     2   --> G_3            
     e( 19 - 20) =    -22.11121  eV     2   --> G_4            
     e( 21 - 22) =    -14.44992  eV     2   --> G_3            
     e( 21 - 22) =    -14.44992  eV     2   --> G_4            
     e( 23 - 24) =    -13.05459  eV     2   --> G_3            
     e( 23 - 24) =    -13.05459  eV     2   --> G_4            
     e( 25 - 26) =     -7.67791  eV     2   --> G_3            
     e( 25 - 26) =     -7.67791  eV     2   --> G_4            
     e( 27 - 28) =     -5.88614  eV     2   --> G_3            
     e( 27 - 28) =     -5.88614  eV     2   --> G_4            
     e( 29 - 30) =     -4.85139  eV     2   --> G_3            
     e( 29 - 30) =     -4.85139  eV     2   --> G_4            
     e( 31 - 32) =     -4.31298  eV     2   --> G_3            
     e( 31 - 32) =     -4.31298  eV     2   --> G_4            
     e( 33 - 34) =     -4.26431  eV     2   --> G_3            
     e( 33 - 34) =     -4.26431  eV     2   --> G_4            
     e( 35 - 36) =     -2.99436  eV     2   --> G_3            
     e( 35 - 36) =     -2.99436  eV     2   --> G_4            
     e( 37 - 38) =     -2.83788  eV     2   --> G_3            
     e( 37 - 38) =     -2.83788  eV     2   --> G_4            
     e( 39 - 40) =     -1.49102  eV     2   --> G_3            
     e( 39 - 40) =     -1.49102  eV     2   --> G_4            
     e( 41 - 42) =      0.45885  eV     2   --> G_3            
     e( 41 - 42) =      0.45885  eV     2   --> G_4            
     e( 43 - 44) =      2.11839  eV     2   --> G_3            
     e( 43 - 44) =      2.11839  eV     2   --> G_4            
     e( 45 - 46) =      2.40988  eV     2   --> G_3            
     e( 45 - 46) =      2.40988  eV     2   --> G_4            
     e( 47 - 48) =      2.79375  eV     2   --> G_3            
     e( 47 - 48) =      2.79375  eV     2   --> G_4            

 **************************************************************************

 **************************************************************************

                    xk=(   0.00000,   0.04764,   0.00000  )

     Band symmetry, C_s (m)     double point group:

     e(  1 -  2) =    -22.19612  eV     2   --> G_3            
     e(  1 -  2) =    -22.19612  eV     2   --> G_4            
     e(  3 -  4) =    -22.18620  eV     2   --> G_3            
     e(  3 -  4) =    -22.18620  eV     2   --> G_4            
     e(  5 -  6) =    -22.18106  eV     2   --> G_3            
     e(  5 -  6) =    -22.18106  eV     2   --> G_4            
     e(  7 -  8) =    -22.17428  eV     2   --> G_3            
     e(  7 -  8) =    -22.17428  eV     2   --> G_4            
     e(  9 - 10) =    -22.16998  eV     2   --> G_3            
     e(  9 - 10) =    -22.16998  eV     2   --> G_4            
     e( 11 - 12) =    -22.14190  eV     2   --> G_3            
     e( 11 - 12) =    -22.14190  eV     2   --> G_4            
     e( 13 - 14) =    -22.13059  eV     2   --> G_3            
     e( 13 - 14) =    -22.13059  eV     2   --> G_4            
     e( 15 - 16) =    -22.12571  eV     2   --> G_3            
     e( 15 - 16) =    -22.12571  eV     2   --> G_4            
     e( 17 - 18) =    -22.11612  eV     2   --> G_3            
     e( 17 - 18) =    -22.11612  eV     2   --> G_4            
     e( 19 - 20) =    -22.11102  eV     2   --> G_3            
     e( 19 - 20) =    -22.11102  eV     2   --> G_4            
     e( 21 - 22) =    -14.46478  eV     2   --> G_3            
     e( 21 - 22) =    -14.46478  eV     2   --> G_4            
     e( 23 - 24) =    -13.05344  eV     2   --> G_3            
     e( 23 - 24) =    -13.05344  eV     2   --> G_4            
     e( 25 - 26) =     -7.63449  eV     2   --> G_3            
     e( 25 - 26) =     -7.63449  eV     2   --> G_4            
     e( 27 - 28) =     -5.79434  eV     2   --> G_3            
     e( 27 - 28) =     -5.79434  eV     2   --> G_4            
     e( 29 - 30) =     -4.87667  eV     2   --> G_3            
     e( 29 - 30) =     -4.87667  eV     2   --> G_4            
     e( 31 - 32) =     -4.36021  eV     2   --> G_3            
     e( 31 - 32) =     -4.36021  eV     2   --> G_4            
     e( 33 - 34) =     -4.28398  eV     2   --> G_3            
     e( 33 - 34) =     -4.28398  eV     2   --> G_4            
     e( 35 - 36) =     -3.00395  eV     2   --> G_3            
     e( 35 - 36) =     -3.00395  eV     2   --> G_4            
     e( 37 - 38) =     -2.92089  eV     2   --> G_3            
     e( 37 - 38) =     -2.92089  eV     2   --> G_4            
     e( 39 - 40) =     -1.46715  eV     2   --> G_3            
     e( 39 - 40) =     -1.46715  eV     2   --> G_4            
     e( 41 - 42) =      0.43267  eV     2   --> G_3            
     e( 41 - 42) =      0.43267  eV     2   --> G_4            
     e( 43 - 44) =      2.09113  eV     2   --> G_3            
     e( 43 - 44) =      2.09113  eV     2   --> G_4            
     e( 45 - 46) =      2.51210  eV     2   --> G_3            
     e( 45 - 46) =      2.51210  eV     2   --> G_4            
     e( 47 - 48) =      2.79986  eV     2   --> G_3            
     e( 47 - 48) =      2.79986  eV     2   --> G_4            

 **************************************************************************

 **************************************************************************

                    xk=(   0.00000,   0.02382,   0.00000  )

     Band symmetry, C_s (m)     double point group:

     e(  1 -  2) =    -22.19623  eV     2   --> G_3            
     e(  1 -  2) =    -22.19623  eV     2   --> G_4            
     e(  3 -  4) =    -22.18628  eV     2   --> G_3            
     e(  3 -  4) =    -22.18628  eV     2   --> G_4            
     e(  5 -  6) =    -22.18097  eV     2   --> G_3            
     e(  5 -  6) =    -22.18097  eV     2   --> G_4            
     e(  7 -  8) =    -22.17412  eV     2   --> G_3            
     e(  7 -  8) =    -22.17412  eV     2   --> G_4            
     e(  9 - 10) =    -22.17030  eV     2   --> G_3            
     e(  9 - 10) =    -22.17030  eV     2   --> G_4            
     e( 11 - 12) =    -22.14190  eV     2   --> G_3            
     e( 11 - 12) =    -22.14190  eV     2   --> G_4            
     e( 13 - 14) =    -22.13067  eV     2   --> G_3            
     e( 13 - 14) =    -22.13067  eV     2   --> G_4            
     e( 15 - 16) =    -22.12574  eV     2   --> G_3            
     e( 15 - 16) =    -22.12574  eV     2   --> G_4            
     e( 17 - 18) =    -22.11607  eV     2   --> G_3            
     e( 17 - 18) =    -22.11607  eV     2   --> G_4            
     e( 19 - 20) =    -22.11091  eV     2   --> G_3            
     e( 19 - 20) =    -22.11091  eV     2   --> G_4            
     e( 21 - 22) =    -14.47373  eV     2   --> G_3            
     e( 21 - 22) =    -14.47373  eV     2   --> G_4            
     e( 23 - 24) =    -13.05286  eV     2   --> G_3            
     e( 23 - 24) =    -13.05286  eV     2   --> G_4            
     e( 25 - 26) =     -7.60723  eV     2   --> G_3            
     e( 25 - 26) =     -7.60723  eV     2   --> G_4            
     e( 27 - 28) =     -5.73517  eV     2   --> G_3            
     e( 27 - 28) =     -5.73517  eV     2   --> G_4            
     e( 29 - 30) =     -4.89308  eV     2   --> G_3            
     e( 29 - 30) =     -4.89308  eV     2   --> G_4            
     e( 31 - 32) =     -4.38954  eV     2   --> G_3            
     e( 31 - 32) =     -4.38954  eV     2   --> G_4            
     e( 33 - 34) =     -4.29583  eV     2   --> G_3            
     e( 33 - 34) =     -4.29583  eV     2   --> G_4            
     e( 35 - 36) =     -3.00984  eV     2   --> G_3            
     e( 35 - 36) =     -3.00984  eV     2   --> G_4            
     e( 37 - 38) =     -2.97352  eV     2   --> G_3            
     e( 37 - 38) =     -2.97352  eV     2   --> G_4            
     e( 39 - 40) =     -1.45271  eV     2   --> G_3            
     e( 39 - 40) =     -1.45271  eV     2   --> G_4            
     e( 41 - 42) =      0.41691  eV     2   --> G_3            
     e( 41 - 42) =      0.41691  eV     2   --> G_4            
     e( 43 - 44) =      2.07340  eV     2   --> G_3            
     e( 43 - 44) =      2.07340  eV     2   --> G_4            
     e( 45 - 46) =      2.56323  eV     2   --> G_3            
     e( 45 - 46) =      2.56323  eV     2   --> G_4            
     e( 47 - 48) =      2.82034  eV     2   --> G_3            
     e( 47 - 48) =      2.82034  eV     2   --> G_4            

 **************************************************************************

 **************************************************************************

                    xk=(   0.00000,   0.00000,   0.00000  )

     Band symmetry, C_s (m)     double point group:

     e(  1 -  2) =    -22.19627  eV     2   --> G_3            
     e(  1 -  2) =    -22.19627  eV     2   --> G_4            
     e(  3 -  4) =    -22.18630  eV     2   --> G_3            
     e(  3 -  4) =    -22.18630  eV     2   --> G_4            
     e(  5 -  6) =    -22.18094  eV     2   --> G_3            
     e(  5 -  6) =    -22.18094  eV     2   --> G_4            
     e(  7 -  8) =    -22.17406  eV     2   --> G_3            
     e(  7 -  8) =    -22.17406  eV     2   --> G_4            
     e(  9 - 10) =    -22.17040  eV     2   --> G_3            
     e(  9 - 10) =    -22.17040  eV     2   --> G_4            
     e( 11 - 12) =    -22.14190  eV     2   --> G_3            
     e( 11 - 12) =    -22.14190  eV     2   --> G_4            
     e( 13 - 14) =    -22.13070  eV     2   --> G_3            
     e( 13 - 14) =    -22.13070  eV     2   --> G_4            
     e( 15 - 16) =    -22.12574  eV     2   --> G_3            
     e( 15 - 16) =    -22.12574  eV     2   --> G_4            
     e( 17 - 18) =    -22.11605  eV     2   --> G_3            
     e( 17 - 18) =    -22.11605  eV     2   --> G_4            
     e( 19 - 20) =    -22.11087  eV     2   --> G_3            
     e( 19 - 20) =    -22.11087  eV     2   --> G_4            
     e( 21 - 22) =    -14.47672  eV     2   --> G_3            
     e( 21 - 22) =    -14.47672  eV     2   --> G_4            
     e( 23 - 24) =    -13.05268  eV     2   --> G_3            
     e( 23 - 24) =    -13.05268  eV     2   --> G_4            
     e( 25 - 26) =     -7.59793  eV     2   --> G_3            
     e( 25 - 26) =     -7.59793  eV     2   --> G_4            
     e( 27 - 28) =     -5.71465  eV     2   --> G_3            
     e( 27 - 28) =     -5.71465  eV     2   --> G_4            
     e( 29 - 30) =     -4.89882  eV     2   --> G_3            
     e( 29 - 30) =     -4.89882  eV     2   --> G_4            
     e( 31 - 32) =     -4.39949  eV     2   --> G_3            
     e( 31 - 32) =     -4.39949  eV     2   --> G_4            
     e( 33 - 34) =     -4.29979  eV     2   --> G_3            
     e( 33 - 34) =     -4.29979  eV     2   --> G_4            
     e( 35 - 36) =     -3.01183  eV     2   --> G_3            
     e( 35 - 36) =     -3.01183  eV     2   --> G_4            
     e( 37 - 38) =     -2.99159  eV     2   --> G_3            
     e( 37 - 38) =     -2.99159  eV     2   --> G_4            
     e( 39 - 40) =     -1.44789  eV     2   --> G_3            
     e( 39 - 40) =     -1.44789  eV     2   --> G_4            
     e( 41 - 42) =      0.41164  eV     2   --> G_3            
     e( 41 - 42) =      0.41164  eV     2   --> G_4            
     e( 43 - 44) =      2.06726  eV     2   --> G_3            
     e( 43 - 44) =      2.06726  eV     2   --> G_4            
     e( 45 - 46) =      2.57705  eV     2   --> G_3            
     e( 45 - 46) =      2.57705  eV     2   --> G_4            
     e( 47 - 48) =      2.83178  eV     2   --> G_3            
     e( 47 - 48) =      2.83178  eV     2   --> G_4            

 **************************************************************************
 
     BANDS        :   2m24.54s CPU   3m44.02s WALL

 
   This run was terminated on:  11:25:40  19Mar2023            

=------------------------------------------------------------------------------=
   JOB DONE.
=------------------------------------------------------------------------------=
